pySIMM System Object

162 atoms
171 bonds
300 angles
471 dihedrals
60 impropers

3 atom types
5 bond types
2 angle types
3 dihedral types
1 improper types

-9.023921 9.023921 xlo xhi
-9.023921 9.023921 ylo yhi
-9.023921 9.023921 zlo zhi

Masses

   1	1.008	# H_
   2	12.011	# C_R
   3	12.011	# C_3

Pair Coeffs

   1	0.0152	2.84642140446	# H_
   2	0.0951	3.47299047293	# C_R
   3	0.0951	3.47299047293	# C_3

Bond Coeffs

   1	350.0	1.46	# C_R,C_3
   2	525.0	1.39	# C_R,C_R
   3	350.0	1.53	# C_3,C_3
   4	350.0	1.09	# C_3,H_
   5	350.0	1.02	# C_R,H_

Angle Coeffs

   1	50.0	109.471	# X,C_3,X
   2	50.0	120.0	# X,C_R,X

Dihedral Coeffs

   1	0.083333	-1	6	# C_R,C_R,C_3,X
   2	3.125000	-1	2	# X,C_R,C_R,X
   3	0.111111	1	3	# X,C_3,C_3,X

Improper Coeffs

   1	40.0	0.0	# C_R,X,X,X

Atoms

   1	1	1	0.0394837882083	5.91351846867	4.71507591766	-2.82805834124
   2	1	3	-0.0447518808513	4.81991792112	4.79852937939	-2.86108048707
   3	1	2	-0.0594993777887	4.32950403746	4.51692185481	-4.24111530722
   4	1	2	-0.0775234865994	5.01181576687	3.61023235064	-5.05241929891
   5	1	2	-0.0775234865994	3.18868231081	5.1604475245	-4.72064623474
   6	1	3	-0.0728971374764	4.20918010035	3.8588123535	-1.82474425036
   7	1	2	-0.0830957774989	4.55309296862	3.34712028779	-6.34320910238
   8	1	2	-0.0830957774989	2.73003497775	4.89727130068	-6.01144976321
   9	1	2	-0.0836036651708	3.41220937135	3.99056940718	-6.82272236415
  10	1	1	0.0394837882083	4.5944834863	5.83704413042	-2.58818869991
  11	1	1	0.0845609368538	5.90091666461	3.10107071932	-4.68998038426
  12	1	1	0.0845609368538	2.64711412211	5.86764949093	-4.09800892806
  13	1	1	0.0276340176099	4.59238762632	4.09617806128	-0.82735086618
  14	1	1	0.0276340176099	4.45452948914	2.81419696716	-2.04413447813
  15	1	1	0.0836768132161	5.08397375268	2.64077048678	-6.97467721854
  16	1	1	0.0836768132161	1.84134005842	5.39785343538	-6.38473706111
  17	1	1	0.0836454600975	3.05487660649	3.78555485446	-7.82762304498
  18	1	3	-0.0447518808513	2.6816644364931	3.987665746857061	-1.7914924401529475
  19	1	2	-0.0594993777887	2.3719191062150866	5.419422580813279	-1.511430163523925
  20	1	2	-0.0775234865994	3.229531906528047	6.175195089441596	-0.7119568869592725
  21	1	2	-0.0775234865994	1.2247586870702	6.002835466122171	-2.049205012324869
  22	1	3	-0.0728971374764	2.0709266157268127	3.0479487209597362	-0.755156203440009
  23	1	2	-0.0830957774989	2.9397635864012637	7.514357332878257	-0.45028593632738545
  24	1	2	-0.0830957774989	0.9350733491315761	7.342004835793318	-1.7874787157515746
  25	1	2	-0.0836036651708	1.7925484303378394	8.097761320155572	-0.9879775703773355
  26	1	1	0.0394837882083	2.3178826567088633	3.714167944898289	-2.7898236822869045
  27	1	1	0.0845609368538	4.125580498079015	5.731921686826389	-0.28567816110790734
  28	1	1	0.0845609368538	0.5476309554948424	5.424462910120569	-2.672174643684043
  29	1	1	0.0276340176099	2.319571421716117	2.009193243881311	-0.9942103171760264
  30	1	1	0.0276340176099	2.449449449830537	3.2662793782814084	0.24913553113494502
  31	1	1	0.0836768132161	3.6071590408757954	8.102639975306216	0.17262920232692025
  32	1	1	0.0836768132161	0.04149086213921699	7.79623588130433	-2.20567608092085
  33	1	1	0.0836454600975	1.5667710478986863	9.140347964144272	-0.7840640755926618
  34	1	3	-0.0447518808513	0.5434109518670025	3.176802114321461	-0.7219043932323026
  35	1	2	-0.0594993777887	0.05299706821176986	2.895194589743035	-2.101939213379607
  36	1	2	-0.0775234865994	0.7353087976217965	1.9885050855664534	-2.913243205065535
  37	1	2	-0.0775234865994	-1.0878246584426785	3.5387202594287004	-2.581470140900217
  38	1	3	-0.0728971374764	-0.06732686889928474	2.2370850884241364	0.31443184348063596
  39	1	2	-0.0830957774989	0.27658599937225037	1.725393022716096	-4.204033008538099
  40	1	2	-0.0830957774989	-1.5464719915014642	3.2755440356121177	-3.8722736693644473
  41	1	2	-0.0836036651708	-0.8642975979058019	2.368842142109864	-4.683546270308068
  42	1	1	0.0394837882083	0.3179765170474629	4.215316865346898	-0.44901260607085924
  43	1	1	0.0845609368538	1.6244096953536047	1.4793434542515627	-2.550804290420251
  44	1	1	0.0845609368538	-1.6293928471400911	4.24592222585866	-1.9588328342211179
  45	1	1	0.0276340176099	0.3158806570713949	2.47445079621062	1.3118252276608455
  46	1	1	0.0276340176099	0.17802251989188245	1.1924697020843538	0.0950416157083287
  47	1	1	0.0836768132161	0.8074667834286957	1.0190432217044236	-4.835501124701053
  48	1	1	0.0836768132161	-2.4351669108325114	3.776126170309823	-4.245560967268719
  49	1	1	0.0836454600975	-1.2216303627587384	2.163827589389184	-5.688446951139409
  50	1	3	-0.0447518808513	-1.594842532759095	2.3659384817858613	0.34768365368834236
  51	1	2	-0.0594993777887	-1.9045878630371083	3.7976953157420783	0.6277459303173645
  52	1	2	-0.0775234865994	-1.0469750627241476	4.553467824370395	1.4272192068820166
  53	1	2	-0.0775234865994	-3.051748282181995	4.381108201050971	0.08997108151641986
  54	1	3	-0.0728971374764	-2.205580353525382	1.4262214558885362	1.3840198904012804
  55	1	2	-0.0830957774989	-1.3367433828509312	5.8926300678070564	1.6888901575139026
  56	1	2	-0.0830957774989	-3.341433620120619	5.720277570722116	0.3516973780897126
  57	1	2	-0.0836036651708	-2.4839585389143553	6.476034055084371	1.1511985234639552
  58	1	1	0.0394837882083	-1.9586243125433314	2.09244067982709	-0.6506475884456149
  59	1	1	0.0845609368538	-0.15092647117318014	4.110194421755189	1.8534979327333814
  60	1	1	0.0845609368538	-3.728876013757353	3.8027356450493692	-0.5329985498427541
  61	1	1	0.0276340176099	-1.9569355475360783	0.38746597881011047	1.1449657766652628
  62	1	1	0.0276340176099	-1.827057519421658	1.6445521132102079	2.388311624976234
  63	1	1	0.0836768132161	-0.669347928376399	6.480912710235016	2.311805296168211
  64	1	1	0.0836768132161	-4.235016107112978	6.17450861623313	-0.06649998707956106
  65	1	1	0.0836454600975	-2.7097359213535093	7.518620699073072	1.3551120182486267
  66	1	3	-0.0447518808513	-3.733096017385192	1.5550748492502617	1.4172717006089874
  67	1	2	-0.0594993777887	-4.223509901040426	1.273467324671838	0.037236880461684274
  68	1	2	-0.0775234865994	-3.5411981716304	0.366777820495257	-0.774067111224245
  69	1	2	-0.0775234865994	-5.364331627694875	1.916992994357504	-0.4422940470589254
  70	1	3	-0.0728971374764	-4.343833838151479	0.6153578233529367	2.4536079373219257
  71	1	2	-0.0830957774989	-3.999920969879948	0.10366575764490271	-2.0648569146968097
  72	1	2	-0.0830957774989	-5.822978960753661	1.6538167705409252	-1.7330975755231544
  73	1	2	-0.0836036651708	-5.140804567158	0.7471148770386717	-2.544370176466777
  74	1	1	0.0394837882083	-3.95853045220473	2.5935896002756973	1.690163487770431
  75	1	1	0.0845609368538	-2.6520972738985926	-0.14238381081963558	-0.4116281965789632
  76	1	1	0.0845609368538	-5.905899816392287	2.624194960787464	0.18034325962017528
  77	1	1	0.0276340176099	-3.960626312180799	0.8527235311394192	3.4510013215021353
  78	1	1	0.0276340176099	-4.098484449360313	-0.4292575629868458	2.234217709549618
  79	1	1	0.0836768132161	-3.469040185823503	-0.6026840433667706	-2.6963250308597644
  80	1	1	0.0836768132161	-6.7116738800847076	2.1543989052386303	-2.1063848734274253
  81	1	1	0.0836454600975	-5.498137332010937	0.5421003243179934	-3.5492708572981173
  82	1	3	-0.0447518808513	-5.87134950201129	0.7442112167146622	2.486859747529633
  83	1	2	-0.0594993777887	-6.181094832289304	2.175968050670879	2.7669220241586556
  84	1	2	-0.0775234865994	-5.323482031976342	2.9317405592991963	3.5663953007233076
  85	1	2	-0.0775234865994	-7.328255251434189	2.759380935979772	2.2291471753577112
  86	1	3	-0.0728971374764	-6.482087322777577	-0.19550580918266297	3.5231959842425713
  87	1	2	-0.0830957774989	-5.613250352103125	4.270902802735859	3.828066251355194
  88	1	2	-0.0830957774989	-7.6179405893728145	4.0985503056509165	2.4908734719310024
  89	1	2	-0.0836036651708	-6.760465508166551	4.854306790013171	3.290374617305245
  90	1	1	0.0394837882083	-6.2351312817955264	0.470713414755892	1.4885285053956765
  91	1	1	0.0845609368538	-4.427433440425375	2.48846715668399	3.992674026574673
  92	1	1	0.0845609368538	-8.005382983009548	2.18100837997817	1.6061775439985373
  93	1	1	0.0276340176099	-6.233442516788273	-1.2342612862610876	3.284141870506554
  94	1	1	0.0276340176099	-6.103564488673854	0.02282484813900898	4.527487718817525
  95	1	1	0.0836768132161	-4.9458548976285925	4.859185445163818	4.450981390009502
  96	1	1	0.0836768132161	-8.511523076365172	4.552781351161931	2.0726761067617296
  97	1	1	0.0836454600975	-6.986242890605702	5.896893434001872	3.494288112089918
  98	1	3	-0.0447518808513	-8.009602986637386	-0.06665241582093745	3.5564477944502784
  99	1	2	-0.0594993777887	-8.50001687029262	-0.34825994039936226	2.1764129743029743
 100	1	2	-0.0775234865994	-7.817705140882595	-1.254949444575944	1.3651089826170448
 101	1	2	-0.0775234865994	-9.640838596947068	0.29526572928630457	1.6968820467823655
 102	1	3	-0.0728971374764	-8.620340807403673	-1.0063694417182625	4.592784031163217
 103	1	2	-0.0830957774989	-8.276427939132141	-1.5180615074262973	0.07431917914448061
 104	1	2	-0.0830957774989	-10.099485930005857	0.032089505469725665	0.4060785183181368
 105	1	2	-0.0836036651708	-9.417311536410194	-0.8746123880325278	-0.40519408262548584
 106	1	1	0.0394837882083	-8.235037421456926	0.9718623352044984	3.829339581611722
 107	1	1	0.0845609368538	-6.928604243150787	-1.764111075890835	1.727547897262328
 108	1	1	0.0845609368538	-10.182406785644481	1.0024676957162646	2.319519353461467
 109	1	1	0.0276340176099	-8.237133281432994	-0.7690037339317803	5.590177415343425
 110	1	1	0.0276340176099	-8.374991418612508	-2.050984828058046	4.3733938033909086
 111	1	1	0.0836768132161	-7.7455471550756965	-2.224411308437971	-0.557148937018475
 112	1	1	0.0836768132161	-10.988180849336901	0.5326716401674303	0.03279122041386451
 113	1	1	0.0836454600975	-9.774644301263129	-1.079626940753207	-1.4100947634568275
 114	1	3	-0.0447518808513	-10.147856471263482	-0.8775160483565365	4.626035841370924
 115	1	2	-0.0594993777887	-10.457601801541497	0.5542407855996814	4.906098117999948
 116	1	2	-0.0775234865994	-9.599989001228534	1.310013294227998	5.7055713945646
 117	1	2	-0.0775234865994	-11.604762220686382	1.1376536709085734	4.368323269199003
 118	1	3	-0.0728971374764	-10.75859429202977	-1.817233074253862	5.6623720780838624
 119	1	2	-0.0830957774989	-9.889757321355317	2.649175537664659	5.967242345196485
 120	1	2	-0.0830957774989	-11.894447558625007	2.476823040579718	4.630049565772294
 121	1	2	-0.0836036651708	-11.036972477418743	3.232579524941973	5.429550711146537
 122	1	1	0.0394837882083	-10.511638251047719	-1.151013850315308	3.627704599236967
 123	1	1	0.0845609368538	-8.703940409677566	0.8667398916127911	6.131850120415964
 124	1	1	0.0845609368538	-12.281889952261741	0.5592811149069707	3.7453536378398287
 125	1	1	0.0276340176099	-10.509949486040465	-2.8559885513322856	5.423317964347845
 126	1	1	0.0276340176099	-10.380071457926046	-1.5989024169321904	6.666663812658818
 127	1	1	0.0836768132161	-9.222361866880785	3.2374581800926205	6.590157483850795
 128	1	1	0.0836768132161	-12.788030045617365	2.931054086090733	4.211852200603022
 129	1	1	0.0836454600975	-11.262749859857895	4.275166168930674	5.63346420593121
 130	1	3	-0.0447518808513	-12.286109955889579	-1.6883796808921356	5.6956238882915695
 131	1	2	-0.0594993777887	-12.776523839544813	-1.969987205470561	4.3155890681442655
 132	1	2	-0.0775234865994	-12.094212110134787	-2.876676709647141	3.504285076458336
 133	1	2	-0.0775234865994	-13.91734556619926	-1.3264615357848928	3.836058140623657
 134	1	3	-0.0728971374764	-12.896847776655866	-2.6280967067894614	6.731960125004508
 135	1	2	-0.0830957774989	-12.552934908384334	-3.1397887724974956	2.2134952729857718
 136	1	2	-0.0830957774989	-14.37599289925805	-1.589637759601472	2.545254612159428
 137	1	2	-0.0836036651708	-13.693818505662387	-2.4963396531037247	1.7339820112158044
 138	1	1	0.0394837882083	-12.511544390709116	-0.6498649298667003	5.968515675453015
 139	1	1	0.0845609368538	-11.20511121240298	-3.385838340962033	3.866723991103619
 140	1	1	0.0845609368538	-14.458913754896674	-0.6192595693549336	4.45869544730276
 141	1	1	0.0276340176099	-12.513640250685187	-2.3907309990029804	7.729353509184716
 142	1	1	0.0276340176099	-12.6514983878647	-3.6727120931292476	6.512569897232198
 143	1	1	0.0836768132161	-12.02205412432789	-3.8461385735091693	1.5820271568228144
 144	1	1	0.0836768132161	-15.264687818589094	-1.089055624903767	2.1719673142551557
 145	1	1	0.0836454600975	-14.051151270515321	-2.701354205824403	0.7290813303844637
 146	1	3	-0.0447518808513	-14.424363440515675	-2.499243313427737	6.765211935212215
 147	1	2	-0.0594993777887	-14.734108770793693	-1.06748647947152	7.045274211841237
 148	1	2	-0.0775234865994	-13.87649597048073	-0.31171397084320107	7.844747488405889
 149	1	2	-0.0775234865994	-15.881269189938578	-0.48407359416262974	6.50749936304029
 150	1	3	-0.0728971374764	-15.035101261281962	-3.4389603393250625	7.801548171925154
 151	1	2	-0.0830957774989	-14.166264290607517	1.027448272593459	8.106418439037775
 152	1	2	-0.0830957774989	-16.170954527877203	0.8550957755085147	6.76922565961358
 153	1	2	-0.0836036651708	-15.313479446670943	1.6108522598707729	7.568726804987823
 154	1	1	0.0394837882083	-14.788145220299908	-2.772741115386511	5.766880693078258
 155	1	1	0.0845609368538	-12.980447378929766	-0.7549873734584063	8.271026214257255
 156	1	1	0.0845609368538	-16.558396921513935	-1.0624461501642342	5.884529731681116
 157	1	1	0.0276340176099	-14.786456455292658	-4.477715816403485	7.562494058189138
 158	1	1	0.0276340176099	-14.656578427178239	-3.2206296820033886	8.805839906500111
 159	1	1	0.0836768132161	-13.498868836132985	1.615730915021424	8.729333577692085
 160	1	1	0.0836768132161	-17.06453701486956	1.3093268210195281	6.351028294444306
 161	1	1	0.0836454600975	-15.539256829110094	2.6534389038594735	7.772640299772495
 162	1	1	0.0276340176099	-16.126183878324685	-3.3469222012095456	7.825299464930659

Velocities

   1	0.0	0.0	0.0
   2	0.0	0.0	0.0
   3	0.0	0.0	0.0
   4	0.0	0.0	0.0
   5	0.0	0.0	0.0
   6	0.0	0.0	0.0
   7	0.0	0.0	0.0
   8	0.0	0.0	0.0
   9	0.0	0.0	0.0
  10	0.0	0.0	0.0
  11	0.0	0.0	0.0
  12	0.0	0.0	0.0
  13	0.0	0.0	0.0
  14	0.0	0.0	0.0
  15	0.0	0.0	0.0
  16	0.0	0.0	0.0
  17	0.0	0.0	0.0
  18	0.0	0.0	0.0
  19	0.0	0.0	0.0
  20	0.0	0.0	0.0
  21	0.0	0.0	0.0
  22	0.0	0.0	0.0
  23	0.0	0.0	0.0
  24	0.0	0.0	0.0
  25	0.0	0.0	0.0
  26	0.0	0.0	0.0
  27	0.0	0.0	0.0
  28	0.0	0.0	0.0
  29	0.0	0.0	0.0
  30	0.0	0.0	0.0
  31	0.0	0.0	0.0
  32	0.0	0.0	0.0
  33	0.0	0.0	0.0
  34	0.0	0.0	0.0
  35	0.0	0.0	0.0
  36	0.0	0.0	0.0
  37	0.0	0.0	0.0
  38	0.0	0.0	0.0
  39	0.0	0.0	0.0
  40	0.0	0.0	0.0
  41	0.0	0.0	0.0
  42	0.0	0.0	0.0
  43	0.0	0.0	0.0
  44	0.0	0.0	0.0
  45	0.0	0.0	0.0
  46	0.0	0.0	0.0
  47	0.0	0.0	0.0
  48	0.0	0.0	0.0
  49	0.0	0.0	0.0
  50	0.0	0.0	0.0
  51	0.0	0.0	0.0
  52	0.0	0.0	0.0
  53	0.0	0.0	0.0
  54	0.0	0.0	0.0
  55	0.0	0.0	0.0
  56	0.0	0.0	0.0
  57	0.0	0.0	0.0
  58	0.0	0.0	0.0
  59	0.0	0.0	0.0
  60	0.0	0.0	0.0
  61	0.0	0.0	0.0
  62	0.0	0.0	0.0
  63	0.0	0.0	0.0
  64	0.0	0.0	0.0
  65	0.0	0.0	0.0
  66	0.0	0.0	0.0
  67	0.0	0.0	0.0
  68	0.0	0.0	0.0
  69	0.0	0.0	0.0
  70	0.0	0.0	0.0
  71	0.0	0.0	0.0
  72	0.0	0.0	0.0
  73	0.0	0.0	0.0
  74	0.0	0.0	0.0
  75	0.0	0.0	0.0
  76	0.0	0.0	0.0
  77	0.0	0.0	0.0
  78	0.0	0.0	0.0
  79	0.0	0.0	0.0
  80	0.0	0.0	0.0
  81	0.0	0.0	0.0
  82	0.0	0.0	0.0
  83	0.0	0.0	0.0
  84	0.0	0.0	0.0
  85	0.0	0.0	0.0
  86	0.0	0.0	0.0
  87	0.0	0.0	0.0
  88	0.0	0.0	0.0
  89	0.0	0.0	0.0
  90	0.0	0.0	0.0
  91	0.0	0.0	0.0
  92	0.0	0.0	0.0
  93	0.0	0.0	0.0
  94	0.0	0.0	0.0
  95	0.0	0.0	0.0
  96	0.0	0.0	0.0
  97	0.0	0.0	0.0
  98	0.0	0.0	0.0
  99	0.0	0.0	0.0
 100	0.0	0.0	0.0
 101	0.0	0.0	0.0
 102	0.0	0.0	0.0
 103	0.0	0.0	0.0
 104	0.0	0.0	0.0
 105	0.0	0.0	0.0
 106	0.0	0.0	0.0
 107	0.0	0.0	0.0
 108	0.0	0.0	0.0
 109	0.0	0.0	0.0
 110	0.0	0.0	0.0
 111	0.0	0.0	0.0
 112	0.0	0.0	0.0
 113	0.0	0.0	0.0
 114	0.0	0.0	0.0
 115	0.0	0.0	0.0
 116	0.0	0.0	0.0
 117	0.0	0.0	0.0
 118	0.0	0.0	0.0
 119	0.0	0.0	0.0
 120	0.0	0.0	0.0
 121	0.0	0.0	0.0
 122	0.0	0.0	0.0
 123	0.0	0.0	0.0
 124	0.0	0.0	0.0
 125	0.0	0.0	0.0
 126	0.0	0.0	0.0
 127	0.0	0.0	0.0
 128	0.0	0.0	0.0
 129	0.0	0.0	0.0
 130	0.0	0.0	0.0
 131	0.0	0.0	0.0
 132	0.0	0.0	0.0
 133	0.0	0.0	0.0
 134	0.0	0.0	0.0
 135	0.0	0.0	0.0
 136	0.0	0.0	0.0
 137	0.0	0.0	0.0
 138	0.0	0.0	0.0
 139	0.0	0.0	0.0
 140	0.0	0.0	0.0
 141	0.0	0.0	0.0
 142	0.0	0.0	0.0
 143	0.0	0.0	0.0
 144	0.0	0.0	0.0
 145	0.0	0.0	0.0
 146	0.0	0.0	0.0
 147	0.0	0.0	0.0
 148	0.0	0.0	0.0
 149	0.0	0.0	0.0
 150	0.0	0.0	0.0
 151	0.0	0.0	0.0
 152	0.0	0.0	0.0
 153	0.0	0.0	0.0
 154	0.0	0.0	0.0
 155	0.0	0.0	0.0
 156	0.0	0.0	0.0
 157	0.0	0.0	0.0
 158	0.0	0.0	0.0
 159	0.0	0.0	0.0
 160	0.0	0.0	0.0
 161	0.0	0.0	0.0
 162	0.0	0.0	0.0

Bonds

   1	4	2	1
   2	4	2	10
   3	1	3	2
   4	5	4	11
   5	2	4	3
   6	5	5	12
   7	2	5	3
   8	4	6	13
   9	3	6	2
  10	2	7	4
  11	2	8	5
  12	2	9	7
  13	2	9	8
  14	4	14	6
  15	5	15	7
  16	5	16	8
  17	5	17	9
  18	4	18	26
  19	1	19	18
  20	5	20	27
  21	2	20	19
  22	5	21	28
  23	2	21	19
  24	4	22	29
  25	3	22	18
  26	2	23	20
  27	2	24	21
  28	2	25	23
  29	2	25	24
  30	4	30	22
  31	5	31	23
  32	5	32	24
  33	5	33	25
  34	3	6	18
  35	4	34	42
  36	1	35	34
  37	5	36	43
  38	2	36	35
  39	5	37	44
  40	2	37	35
  41	4	38	45
  42	3	38	34
  43	2	39	36
  44	2	40	37
  45	2	41	39
  46	2	41	40
  47	4	46	38
  48	5	47	39
  49	5	48	40
  50	5	49	41
  51	3	22	34
  52	4	50	58
  53	1	51	50
  54	5	52	59
  55	2	52	51
  56	5	53	60
  57	2	53	51
  58	4	54	61
  59	3	54	50
  60	2	55	52
  61	2	56	53
  62	2	57	55
  63	2	57	56
  64	4	62	54
  65	5	63	55
  66	5	64	56
  67	5	65	57
  68	3	38	50
  69	4	66	74
  70	1	67	66
  71	5	68	75
  72	2	68	67
  73	5	69	76
  74	2	69	67
  75	4	70	77
  76	3	70	66
  77	2	71	68
  78	2	72	69
  79	2	73	71
  80	2	73	72
  81	4	78	70
  82	5	79	71
  83	5	80	72
  84	5	81	73
  85	3	54	66
  86	4	82	90
  87	1	83	82
  88	5	84	91
  89	2	84	83
  90	5	85	92
  91	2	85	83
  92	4	86	93
  93	3	86	82
  94	2	87	84
  95	2	88	85
  96	2	89	87
  97	2	89	88
  98	4	94	86
  99	5	95	87
 100	5	96	88
 101	5	97	89
 102	3	70	82
 103	4	98	106
 104	1	99	98
 105	5	100	107
 106	2	100	99
 107	5	101	108
 108	2	101	99
 109	4	102	109
 110	3	102	98
 111	2	103	100
 112	2	104	101
 113	2	105	103
 114	2	105	104
 115	4	110	102
 116	5	111	103
 117	5	112	104
 118	5	113	105
 119	3	86	98
 120	4	114	122
 121	1	115	114
 122	5	116	123
 123	2	116	115
 124	5	117	124
 125	2	117	115
 126	4	118	125
 127	3	118	114
 128	2	119	116
 129	2	120	117
 130	2	121	119
 131	2	121	120
 132	4	126	118
 133	5	127	119
 134	5	128	120
 135	5	129	121
 136	3	102	114
 137	4	130	138
 138	1	131	130
 139	5	132	139
 140	2	132	131
 141	5	133	140
 142	2	133	131
 143	4	134	141
 144	3	134	130
 145	2	135	132
 146	2	136	133
 147	2	137	135
 148	2	137	136
 149	4	142	134
 150	5	143	135
 151	5	144	136
 152	5	145	137
 153	3	118	130
 154	4	146	154
 155	1	147	146
 156	5	148	155
 157	2	148	147
 158	5	149	156
 159	2	149	147
 160	4	150	157
 161	3	150	146
 162	2	151	148
 163	2	152	149
 164	2	153	151
 165	2	153	152
 166	4	158	150
 167	5	159	151
 168	5	160	152
 169	5	161	153
 170	4	162	150
 171	3	134	146

Angles

   1	1	1	2	10
   2	1	1	2	3
   3	1	1	2	6
   4	1	10	2	3
   5	1	10	2	6
   6	1	3	2	6
   7	2	2	3	4
   8	2	2	3	5
   9	2	4	3	5
  10	2	3	4	11
  11	2	3	4	7
  12	2	11	4	7
  13	2	8	5	3
  14	2	8	5	12
  15	2	3	5	12
  16	1	2	6	13
  17	1	2	6	14
  18	1	13	6	14
  19	2	9	7	4
  20	2	9	7	15
  21	2	4	7	15
  22	2	16	8	9
  23	2	16	8	5
  24	2	9	8	5
  25	2	8	9	17
  26	2	8	9	7
  27	2	17	9	7
  28	1	26	18	19
  29	1	26	18	22
  30	1	19	18	22
  31	2	18	19	20
  32	2	18	19	21
  33	2	20	19	21
  34	2	19	20	27
  35	2	19	20	23
  36	2	27	20	23
  37	2	24	21	19
  38	2	24	21	28
  39	2	19	21	28
  40	1	18	22	29
  41	1	18	22	30
  42	1	29	22	30
  43	2	25	23	20
  44	2	25	23	31
  45	2	20	23	31
  46	2	32	24	25
  47	2	32	24	21
  48	2	25	24	21
  49	2	24	25	33
  50	2	24	25	23
  51	2	33	25	23
  52	1	2	6	18
  53	1	13	6	18
  54	1	14	6	18
  55	1	6	18	26
  56	1	6	18	19
  57	1	6	18	22
  58	1	42	34	35
  59	1	42	34	38
  60	1	35	34	38
  61	2	34	35	36
  62	2	34	35	37
  63	2	36	35	37
  64	2	35	36	43
  65	2	35	36	39
  66	2	43	36	39
  67	2	40	37	35
  68	2	40	37	44
  69	2	35	37	44
  70	1	34	38	45
  71	1	34	38	46
  72	1	45	38	46
  73	2	41	39	36
  74	2	41	39	47
  75	2	36	39	47
  76	2	48	40	41
  77	2	48	40	37
  78	2	41	40	37
  79	2	40	41	49
  80	2	40	41	39
  81	2	49	41	39
  82	1	18	22	34
  83	1	29	22	34
  84	1	30	22	34
  85	1	22	34	42
  86	1	22	34	35
  87	1	22	34	38
  88	1	58	50	51
  89	1	58	50	54
  90	1	51	50	54
  91	2	50	51	52
  92	2	50	51	53
  93	2	52	51	53
  94	2	51	52	59
  95	2	51	52	55
  96	2	59	52	55
  97	2	56	53	51
  98	2	56	53	60
  99	2	51	53	60
 100	1	50	54	61
 101	1	50	54	62
 102	1	61	54	62
 103	2	57	55	52
 104	2	57	55	63
 105	2	52	55	63
 106	2	64	56	57
 107	2	64	56	53
 108	2	57	56	53
 109	2	56	57	65
 110	2	56	57	55
 111	2	65	57	55
 112	1	34	38	50
 113	1	45	38	50
 114	1	46	38	50
 115	1	38	50	58
 116	1	38	50	51
 117	1	38	50	54
 118	1	74	66	67
 119	1	74	66	70
 120	1	67	66	70
 121	2	66	67	68
 122	2	66	67	69
 123	2	68	67	69
 124	2	67	68	75
 125	2	67	68	71
 126	2	75	68	71
 127	2	72	69	67
 128	2	72	69	76
 129	2	67	69	76
 130	1	66	70	77
 131	1	66	70	78
 132	1	77	70	78
 133	2	73	71	68
 134	2	73	71	79
 135	2	68	71	79
 136	2	80	72	73
 137	2	80	72	69
 138	2	73	72	69
 139	2	72	73	81
 140	2	72	73	71
 141	2	81	73	71
 142	1	50	54	66
 143	1	61	54	66
 144	1	62	54	66
 145	1	54	66	74
 146	1	54	66	67
 147	1	54	66	70
 148	1	90	82	83
 149	1	90	82	86
 150	1	83	82	86
 151	2	82	83	84
 152	2	82	83	85
 153	2	84	83	85
 154	2	83	84	91
 155	2	83	84	87
 156	2	91	84	87
 157	2	88	85	83
 158	2	88	85	92
 159	2	83	85	92
 160	1	82	86	93
 161	1	82	86	94
 162	1	93	86	94
 163	2	89	87	84
 164	2	89	87	95
 165	2	84	87	95
 166	2	96	88	89
 167	2	96	88	85
 168	2	89	88	85
 169	2	88	89	97
 170	2	88	89	87
 171	2	97	89	87
 172	1	66	70	82
 173	1	77	70	82
 174	1	78	70	82
 175	1	70	82	90
 176	1	70	82	83
 177	1	70	82	86
 178	1	106	98	99
 179	1	106	98	102
 180	1	99	98	102
 181	2	98	99	100
 182	2	98	99	101
 183	2	100	99	101
 184	2	99	100	107
 185	2	99	100	103
 186	2	107	100	103
 187	2	104	101	99
 188	2	104	101	108
 189	2	99	101	108
 190	1	98	102	109
 191	1	98	102	110
 192	1	109	102	110
 193	2	105	103	100
 194	2	105	103	111
 195	2	100	103	111
 196	2	112	104	105
 197	2	112	104	101
 198	2	105	104	101
 199	2	104	105	113
 200	2	104	105	103
 201	2	113	105	103
 202	1	82	86	98
 203	1	93	86	98
 204	1	94	86	98
 205	1	86	98	106
 206	1	86	98	99
 207	1	86	98	102
 208	1	122	114	115
 209	1	122	114	118
 210	1	115	114	118
 211	2	114	115	116
 212	2	114	115	117
 213	2	116	115	117
 214	2	115	116	123
 215	2	115	116	119
 216	2	123	116	119
 217	2	120	117	115
 218	2	120	117	124
 219	2	115	117	124
 220	1	114	118	125
 221	1	114	118	126
 222	1	125	118	126
 223	2	121	119	116
 224	2	121	119	127
 225	2	116	119	127
 226	2	128	120	121
 227	2	128	120	117
 228	2	121	120	117
 229	2	120	121	129
 230	2	120	121	119
 231	2	129	121	119
 232	1	98	102	114
 233	1	109	102	114
 234	1	110	102	114
 235	1	102	114	122
 236	1	102	114	115
 237	1	102	114	118
 238	1	138	130	131
 239	1	138	130	134
 240	1	131	130	134
 241	2	130	131	132
 242	2	130	131	133
 243	2	132	131	133
 244	2	131	132	139
 245	2	131	132	135
 246	2	139	132	135
 247	2	136	133	131
 248	2	136	133	140
 249	2	131	133	140
 250	1	130	134	141
 251	1	130	134	142
 252	1	141	134	142
 253	2	137	135	132
 254	2	137	135	143
 255	2	132	135	143
 256	2	144	136	137
 257	2	144	136	133
 258	2	137	136	133
 259	2	136	137	145
 260	2	136	137	135
 261	2	145	137	135
 262	1	114	118	130
 263	1	125	118	130
 264	1	126	118	130
 265	1	118	130	138
 266	1	118	130	131
 267	1	118	130	134
 268	1	154	146	147
 269	1	154	146	150
 270	1	147	146	150
 271	2	146	147	148
 272	2	146	147	149
 273	2	148	147	149
 274	2	147	148	155
 275	2	147	148	151
 276	2	155	148	151
 277	2	152	149	147
 278	2	152	149	156
 279	2	147	149	156
 280	1	146	150	162
 281	1	146	150	157
 282	1	146	150	158
 283	1	162	150	157
 284	1	162	150	158
 285	1	157	150	158
 286	2	153	151	148
 287	2	153	151	159
 288	2	148	151	159
 289	2	160	152	153
 290	2	160	152	149
 291	2	153	152	149
 292	2	152	153	161
 293	2	152	153	151
 294	2	161	153	151
 295	1	130	134	146
 296	1	141	134	146
 297	1	142	134	146
 298	1	134	146	154
 299	1	134	146	147
 300	1	134	146	150

Dihedrals

   1	1	4	3	2	1
   2	1	4	3	2	10
   3	1	4	3	2	6
   4	1	5	3	2	1
   5	1	5	3	2	10
   6	1	5	3	2	6
   7	2	11	4	3	2
   8	2	11	4	3	5
   9	2	7	4	3	2
  10	2	7	4	3	5
  11	2	8	5	3	2
  12	2	8	5	3	4
  13	2	12	5	3	2
  14	2	12	5	3	4
  15	3	13	6	2	1
  16	3	13	6	2	10
  17	3	13	6	2	3
  18	3	14	6	2	1
  19	3	14	6	2	10
  20	3	14	6	2	3
  21	2	9	7	4	3
  22	2	9	7	4	11
  23	2	15	7	4	3
  24	2	15	7	4	11
  25	2	16	8	5	3
  26	2	16	8	5	12
  27	2	9	8	5	3
  28	2	9	8	5	12
  29	2	8	9	7	4
  30	2	8	9	7	15
  31	2	17	9	7	4
  32	2	17	9	7	15
  33	2	17	9	8	16
  34	2	17	9	8	5
  35	2	7	9	8	16
  36	2	7	9	8	5
  37	1	20	19	18	26
  38	1	20	19	18	22
  39	1	21	19	18	26
  40	1	21	19	18	22
  41	2	27	20	19	18
  42	2	27	20	19	21
  43	2	23	20	19	18
  44	2	23	20	19	21
  45	2	24	21	19	18
  46	2	24	21	19	20
  47	2	28	21	19	18
  48	2	28	21	19	20
  49	3	29	22	18	26
  50	3	29	22	18	19
  51	3	30	22	18	26
  52	3	30	22	18	19
  53	2	25	23	20	19
  54	2	25	23	20	27
  55	2	31	23	20	19
  56	2	31	23	20	27
  57	2	32	24	21	19
  58	2	32	24	21	28
  59	2	25	24	21	19
  60	2	25	24	21	28
  61	2	24	25	23	20
  62	2	24	25	23	31
  63	2	33	25	23	20
  64	2	33	25	23	31
  65	2	33	25	24	32
  66	2	33	25	24	21
  67	2	23	25	24	32
  68	2	23	25	24	21
  69	3	1	2	6	18
  70	3	10	2	6	18
  71	3	3	2	6	18
  72	1	6	18	19	20
  73	1	6	18	19	21
  74	3	6	18	22	29
  75	3	6	18	22	30
  76	3	2	6	18	26
  77	3	2	6	18	19
  78	3	2	6	18	22
  79	3	13	6	18	26
  80	3	13	6	18	19
  81	3	13	6	18	22
  82	3	14	6	18	26
  83	3	14	6	18	19
  84	3	14	6	18	22
  85	1	36	35	34	42
  86	1	36	35	34	38
  87	1	37	35	34	42
  88	1	37	35	34	38
  89	2	43	36	35	34
  90	2	43	36	35	37
  91	2	39	36	35	34
  92	2	39	36	35	37
  93	2	40	37	35	34
  94	2	40	37	35	36
  95	2	44	37	35	34
  96	2	44	37	35	36
  97	3	45	38	34	42
  98	3	45	38	34	35
  99	3	46	38	34	42
 100	3	46	38	34	35
 101	2	41	39	36	35
 102	2	41	39	36	43
 103	2	47	39	36	35
 104	2	47	39	36	43
 105	2	48	40	37	35
 106	2	48	40	37	44
 107	2	41	40	37	35
 108	2	41	40	37	44
 109	2	40	41	39	36
 110	2	40	41	39	47
 111	2	49	41	39	36
 112	2	49	41	39	47
 113	2	49	41	40	48
 114	2	49	41	40	37
 115	2	39	41	40	48
 116	2	39	41	40	37
 117	3	26	18	22	34
 118	3	19	18	22	34
 119	3	6	18	22	34
 120	1	22	34	35	36
 121	1	22	34	35	37
 122	3	22	34	38	45
 123	3	22	34	38	46
 124	3	18	22	34	42
 125	3	18	22	34	35
 126	3	18	22	34	38
 127	3	29	22	34	42
 128	3	29	22	34	35
 129	3	29	22	34	38
 130	3	30	22	34	42
 131	3	30	22	34	35
 132	3	30	22	34	38
 133	1	52	51	50	58
 134	1	52	51	50	54
 135	1	53	51	50	58
 136	1	53	51	50	54
 137	2	59	52	51	50
 138	2	59	52	51	53
 139	2	55	52	51	50
 140	2	55	52	51	53
 141	2	56	53	51	50
 142	2	56	53	51	52
 143	2	60	53	51	50
 144	2	60	53	51	52
 145	3	61	54	50	58
 146	3	61	54	50	51
 147	3	62	54	50	58
 148	3	62	54	50	51
 149	2	57	55	52	51
 150	2	57	55	52	59
 151	2	63	55	52	51
 152	2	63	55	52	59
 153	2	64	56	53	51
 154	2	64	56	53	60
 155	2	57	56	53	51
 156	2	57	56	53	60
 157	2	56	57	55	52
 158	2	56	57	55	63
 159	2	65	57	55	52
 160	2	65	57	55	63
 161	2	65	57	56	64
 162	2	65	57	56	53
 163	2	55	57	56	64
 164	2	55	57	56	53
 165	3	42	34	38	50
 166	3	35	34	38	50
 167	3	22	34	38	50
 168	1	38	50	51	52
 169	1	38	50	51	53
 170	3	38	50	54	61
 171	3	38	50	54	62
 172	3	34	38	50	58
 173	3	34	38	50	51
 174	3	34	38	50	54
 175	3	45	38	50	58
 176	3	45	38	50	51
 177	3	45	38	50	54
 178	3	46	38	50	58
 179	3	46	38	50	51
 180	3	46	38	50	54
 181	1	68	67	66	74
 182	1	68	67	66	70
 183	1	69	67	66	74
 184	1	69	67	66	70
 185	2	75	68	67	66
 186	2	75	68	67	69
 187	2	71	68	67	66
 188	2	71	68	67	69
 189	2	72	69	67	66
 190	2	72	69	67	68
 191	2	76	69	67	66
 192	2	76	69	67	68
 193	3	77	70	66	74
 194	3	77	70	66	67
 195	3	78	70	66	74
 196	3	78	70	66	67
 197	2	73	71	68	67
 198	2	73	71	68	75
 199	2	79	71	68	67
 200	2	79	71	68	75
 201	2	80	72	69	67
 202	2	80	72	69	76
 203	2	73	72	69	67
 204	2	73	72	69	76
 205	2	72	73	71	68
 206	2	72	73	71	79
 207	2	81	73	71	68
 208	2	81	73	71	79
 209	2	81	73	72	80
 210	2	81	73	72	69
 211	2	71	73	72	80
 212	2	71	73	72	69
 213	3	58	50	54	66
 214	3	51	50	54	66
 215	3	38	50	54	66
 216	1	54	66	67	68
 217	1	54	66	67	69
 218	3	54	66	70	77
 219	3	54	66	70	78
 220	3	50	54	66	74
 221	3	50	54	66	67
 222	3	50	54	66	70
 223	3	61	54	66	74
 224	3	61	54	66	67
 225	3	61	54	66	70
 226	3	62	54	66	74
 227	3	62	54	66	67
 228	3	62	54	66	70
 229	1	84	83	82	90
 230	1	84	83	82	86
 231	1	85	83	82	90
 232	1	85	83	82	86
 233	2	91	84	83	82
 234	2	91	84	83	85
 235	2	87	84	83	82
 236	2	87	84	83	85
 237	2	88	85	83	82
 238	2	88	85	83	84
 239	2	92	85	83	82
 240	2	92	85	83	84
 241	3	93	86	82	90
 242	3	93	86	82	83
 243	3	94	86	82	90
 244	3	94	86	82	83
 245	2	89	87	84	83
 246	2	89	87	84	91
 247	2	95	87	84	83
 248	2	95	87	84	91
 249	2	96	88	85	83
 250	2	96	88	85	92
 251	2	89	88	85	83
 252	2	89	88	85	92
 253	2	88	89	87	84
 254	2	88	89	87	95
 255	2	97	89	87	84
 256	2	97	89	87	95
 257	2	97	89	88	96
 258	2	97	89	88	85
 259	2	87	89	88	96
 260	2	87	89	88	85
 261	3	74	66	70	82
 262	3	67	66	70	82
 263	3	54	66	70	82
 264	1	70	82	83	84
 265	1	70	82	83	85
 266	3	70	82	86	93
 267	3	70	82	86	94
 268	3	66	70	82	90
 269	3	66	70	82	83
 270	3	66	70	82	86
 271	3	77	70	82	90
 272	3	77	70	82	83
 273	3	77	70	82	86
 274	3	78	70	82	90
 275	3	78	70	82	83
 276	3	78	70	82	86
 277	1	100	99	98	106
 278	1	100	99	98	102
 279	1	101	99	98	106
 280	1	101	99	98	102
 281	2	107	100	99	98
 282	2	107	100	99	101
 283	2	103	100	99	98
 284	2	103	100	99	101
 285	2	104	101	99	98
 286	2	104	101	99	100
 287	2	108	101	99	98
 288	2	108	101	99	100
 289	3	109	102	98	106
 290	3	109	102	98	99
 291	3	110	102	98	106
 292	3	110	102	98	99
 293	2	105	103	100	99
 294	2	105	103	100	107
 295	2	111	103	100	99
 296	2	111	103	100	107
 297	2	112	104	101	99
 298	2	112	104	101	108
 299	2	105	104	101	99
 300	2	105	104	101	108
 301	2	104	105	103	100
 302	2	104	105	103	111
 303	2	113	105	103	100
 304	2	113	105	103	111
 305	2	113	105	104	112
 306	2	113	105	104	101
 307	2	103	105	104	112
 308	2	103	105	104	101
 309	3	90	82	86	98
 310	3	83	82	86	98
 311	3	70	82	86	98
 312	1	86	98	99	100