pySIMM System Object

1602 atoms
1701 bonds
3000 angles
4791 dihedrals
600 impropers

3 atom types
5 bond types
2 angle types
3 dihedral types
1 improper types

-19.441449 19.441449 xlo xhi
-19.441449 19.441449 ylo yhi
-19.441449 19.441449 zlo zhi

Masses

   1	12.011	# C_R
   2	1.008	# H_
   3	12.011	# C_3

Pair Coeffs

   1	0.0951	3.47299047293	# C_R
   2	0.0152	2.84642140446	# H_
   3	0.0951	3.47299047293	# C_3

Bond Coeffs

   1	350.0	1.02	# C_R,H_
   2	525.0	1.39	# C_R,C_R
   3	350.0	1.09	# C_3,H_
   4	350.0	1.53	# C_3,C_3
   5	350.0	1.46	# C_R,C_3

Angle Coeffs

   1	50.0	109.471	# X,C_3,X
   2	50.0	120.0	# X,C_R,X

Dihedral Coeffs

   1	0.083333	-1	6	# C_R,C_R,C_3,X
   2	3.125000	-1	2	# X,C_R,C_R,X
   3	0.111111	1	3	# X,C_3,C_3,X

Improper Coeffs

   1	40.0	0.0	# C_R,X,X,X

Atoms

   1	1	2	0.0394838	0.554864	15.2439	-8.58877
   2	1	3	-0.0447519	1.5389	15.053	-8.15369
   3	1	1	-0.0594994	1.32131	14.4198	-6.81826
   4	1	1	-0.0775235	0.64354	13.1817	-6.70571
   5	1	1	-0.0775235	1.81235	15.0242	-5.6345
   6	1	3	-0.0728971	2.37452	14.2246	-9.1826
   7	1	1	-0.0830958	0.522656	12.5344	-5.46094
   8	1	1	-0.0830958	1.68938	14.3801	-4.38851
   9	1	1	-0.0836037	1.05554	13.1284	-4.30356
  10	1	2	0.0394838	2.02429	16.0263	-8.0427
  11	1	2	0.0845609	0.253693	12.7306	-7.53635
  12	1	2	0.0845609	2.28877	15.9277	-5.67511
  13	1	2	0.027634	2.36138	14.7936	-10.1169
  14	1	2	0.027634	1.85978	13.2841	-9.39305
  15	1	2	0.0836768	0.0548086	11.6272	-5.40034
  16	1	2	0.0836768	2.07126	14.8169	-3.54684
  17	1	2	0.0836455	0.981435	12.651	-3.40244
  18	1	3	-0.0447519	3.8715	13.9399	-8.80932
  19	1	1	-0.0594994	3.95114	13.1322	-7.54195
  20	1	1	-0.0775235	3.43395	11.8135	-7.4687
  21	1	1	-0.0775235	4.54585	13.6737	-6.37337
  22	1	3	-0.0728971	4.65626	13.3165	-10.0288
  23	1	1	-0.0830958	3.52504	11.0596	-6.28315
  24	1	1	-0.0830958	4.6397	12.9217	-5.18679
  25	1	1	-0.0836037	4.13274	11.612	-5.1429
  26	1	2	0.0394838	4.33093	14.9193	-8.64113
  27	1	2	0.0845609	2.99515	11.3868	-8.2867
  28	1	2	0.0845609	4.92586	14.6222	-6.38136
  29	1	2	0.027634	4.49822	13.9763	-10.8868
  30	1	2	0.027634	4.20349	12.3585	-10.2964
  31	1	2	0.0836768	3.15608	10.1068	-6.25443
  32	1	2	0.0836768	5.0825	13.3256	-4.3592
  33	1	2	0.0836455	4.20878	11.0611	-4.28551
  34	1	3	-0.0447519	6.21168	13.1342	-9.87649
  35	1	1	-0.0594994	6.49833	12.2331	-8.70347
  36	1	1	-0.0775235	6.08278	10.8765	-8.68915
  37	1	1	-0.0775235	7.1711	12.7268	-7.55504
  38	1	3	-0.0728971	6.89693	12.7043	-11.2417
  39	1	1	-0.0830958	6.32973	10.0481	-7.57666
  40	1	1	-0.0830958	7.42311	11.9003	-6.44244
  41	1	1	-0.0836037	7.00197	10.5596	-6.45332
  42	1	2	0.0394838	6.609	14.1315	-9.66301
  43	1	2	0.0845609	5.59731	10.4802	-9.49605
  44	1	2	0.0845609	7.48657	13.6982	-7.52208
  45	1	2	0.027634	6.60621	13.4375	-11.9988
  46	1	2	0.027634	6.47114	11.7515	-11.5659
  47	1	2	0.0836768	6.02543	9.07256	-7.58888
  48	1	2	0.0836768	7.91553	12.2739	-5.62876
  49	1	2	0.0836455	7.18764	9.95699	-5.64955
  50	1	3	-0.0447519	8.47209	12.6114	-11.2859
  51	1	1	-0.0594994	8.90518	11.6474	-10.218
  52	1	1	-0.0775235	8.55222	10.2746	-10.285
  53	1	1	-0.0775235	9.6368	12.0926	-9.08562
  54	1	3	-0.0728971	9.0639	12.3139	-12.7364
  55	1	1	-0.0830958	8.8965	9.38407	-9.25268
  56	1	1	-0.0830958	9.9859	11.2035	-8.05127
  57	1	1	-0.0836037	9.60089	9.85465	-8.13486
  58	1	2	0.0394838	8.83617	13.6117	-11.0316
  59	1	2	0.0845609	8.03532	9.91345	-11.0884
  60	1	2	0.0845609	9.91548	13.0726	-9.00377
  61	1	2	0.027634	8.67143	13.0764	-13.4134
  62	1	2	0.027634	8.66285	11.3614	-13.0907
  63	1	2	0.0836768	8.63166	8.39905	-9.31424
  64	1	2	0.0836768	10.5112	11.5388	-7.2409
  65	1	2	0.0836455	9.826	9.20898	-7.38641
  66	1	3	-0.0447519	10.6391	12.3107	-12.9175
  67	1	1	-0.0594994	11.2013	11.3497	-11.9213
  68	1	1	-0.0775235	10.9236	9.96128	-12.0188
  69	1	1	-0.0775235	11.9846	11.8113	-10.8325
  70	1	3	-0.0728971	11.1871	12.0596	-14.3947
  71	1	1	-0.0830958	11.3765	9.06617	-11.0374
  72	1	1	-0.0830958	12.4385	10.9185	-9.84778
  73	1	1	-0.0836037	12.1035	9.55865	-9.94627
  74	1	2	0.0394838	10.9648	13.3243	-12.6634
  75	1	2	0.0845609	10.3791	9.5935	-12.8009
  76	1	2	0.0845609	12.2176	12.8023	-10.7421
  77	1	2	0.027634	10.7384	12.8167	-15.0417
  78	1	2	0.027634	10.8137	11.0972	-14.7522
  79	1	2	0.0836768	11.1631	8.06906	-11.1088
  80	1	2	0.0836768	12.9885	11.2616	-9.05772
  81	1	2	0.0836455	12.3675	8.92199	-9.21435
  82	1	3	-0.0447519	12.7602	12.1199	-14.6245
  83	1	1	-0.0594994	13.424	11.1651	-13.6879
  84	1	1	-0.0775235	13.2163	9.76573	-13.8074
  85	1	1	-0.0775235	14.2588	11.6417	-12.6452
  86	1	3	-0.0728971	13.2906	11.9133	-16.1106
  87	1	1	-0.0830958	13.7858	8.87347	-12.8853
  88	1	1	-0.0830958	14.8276	10.7519	-11.7199
  89	1	1	-0.0836037	14.5566	9.37907	-11.8297
  90	1	2	0.0394838	13.0488	13.1424	-14.3614
  91	1	2	0.0845609	12.6393	9.38746	-14.5611
  92	1	2	0.0845609	14.4477	12.6411	-12.5449
  93	1	2	0.027634	12.8047	12.6663	-16.7355
  94	1	2	0.027634	12.9454	10.9448	-16.4799
  95	1	2	0.0836768	13.6217	7.86798	-12.9702
  96	1	2	0.0836768	15.4128	11.1071	-10.9616
  97	1	2	0.0836455	14.8915	8.74494	-11.1257
  98	1	3	-0.0447519	14.8592	12.0303	-16.3584
  99	1	1	-0.0594994	15.6138	11.0802	-15.4777
 100	1	1	-0.0775235	15.4635	9.67661	-15.6204
 101	1	1	-0.0775235	16.4988	11.5586	-14.4768
 102	1	3	-0.0728971	15.3361	11.8796	-17.865
 103	1	1	-0.0830958	16.1604	8.7826	-14.7873
 104	1	1	-0.0830958	17.1974	10.6672	-13.6414
 105	1	1	-0.0836037	17.0209	9.28261	-13.7978
 106	1	2	0.0394838	15.1177	13.0562	-16.0783
 107	1	2	0.0845609	14.84	9.29852	-16.3338
 108	1	2	0.0845609	16.6401	12.5626	-14.3487
 109	1	2	0.027634	14.7972	12.628	-18.4514
 110	1	2	0.027634	15.0109	10.9077	-18.2429
 111	1	2	0.0836768	16.0411	7.77417	-14.8997
 112	1	2	0.0836768	17.8308	11.0259	-12.9245
 113	1	2	0.0836455	17.5173	8.63711	-13.1952
 114	1	3	-0.0447519	16.8845	12.0602	-18.1765
 115	1	1	-0.0594994	17.7282	11.1306	-17.3565
 116	1	1	-0.0775235	17.6246	9.72619	-17.5239
 117	1	1	-0.0775235	18.6602	11.6235	-16.4048
 118	1	3	-0.0728971	17.2678	11.9284	-19.708098
 119	1	1	-0.0830958	18.4355	8.8496	-16.7849
 120	1	1	-0.0830958	19.466898	10.7445	-15.6563
 121	1	1	-0.0836037	19.3577	9.35902	-15.8619
 122	1	2	0.0394838	17.1208	13.0926	-17.9012
 123	1	2	0.0845609	16.9627	9.33343	-18.1934
 124	1	2	0.0845609	18.7595	12.6292	-16.2532
 125	1	2	0.027634	16.6382	12.6306	-20.260798
 126	1	2	0.027634	16.9868	10.9317	-20.057498
 127	1	2	0.0836768	18.3712	7.84675	-16.9325
 128	1	2	0.0836768	20.137698	11.1111	-14.9778
 129	1	2	0.0836455	19.960098	8.71241	-15.3697
 130	1	3	-0.0447519	18.7702	12.2102	-20.132598
 131	1	1	-0.0594994	19.756998	11.4123	-19.3211
 132	1	1	-0.0775235	19.784698	9.99559	-19.3865
 133	1	1	-0.0775235	20.702798	12.0476	-18.471
 134	1	3	-0.0728971	19.0088	12.0486	-21.692498
 135	1	1	-0.0830958	20.721198	9.24722	-18.6476
 136	1	1	-0.0830958	21.637298	11.2974	-17.7249
 137	1	1	-0.0836037	21.647898	9.89395	-17.8142
 138	1	2	0.0394838	18.9354	13.2715	-19.923698
 139	1	2	0.0845609	19.1202	9.49614	-19.983098
 140	1	2	0.0845609	20.718998	13.0651	-18.391
 141	1	2	0.027634	18.364	12.7733	-22.197298
 142	1	2	0.027634	18.6546	11.0621	-22.001198
 143	1	2	0.0836768	20.730798	8.2312	-18.718
 144	1	2	0.0836768	22.309698	11.7714	-17.1202
 145	1	2	0.0836455	22.325798	9.34572	-17.2801
 146	1	3	-0.0447519	20.476998	12.2603	-22.243898
 147	1	1	-0.0594994	21.420198	11.2896	-21.603798
 148	1	1	-0.0775235	21.279598	9.89551	-21.819498
 149	1	1	-0.0775235	22.481198	11.7341	-20.772598
 150	1	3	-0.0728971	20.609598	12.2049	-23.821098
 151	1	1	-0.0830958	22.176198	8.98516	-21.235798
 152	1	1	-0.0830958	23.375898	10.8186	-20.184298
 153	1	1	-0.0836037	23.225198	9.44026	-20.417398
 154	1	2	0.0394838	20.757098	13.2794	-21.958598
 155	1	2	0.0845609	20.527598	9.5332	-22.408698
 156	1	2	0.0845609	22.613098	12.732	-20.594298
 157	1	2	0.027634	19.948898	12.974	-24.230798
 158	1	2	0.027634	20.222998	11.2482	-24.179998
 159	1	2	0.0836768	22.061598	7.99681	-21.420298
 160	1	2	0.0836768	24.135698	11.1559	-19.589998
 161	1	2	0.0836455	23.873398	8.77452	-19.993898
 162	1	3	-0.0447519	22.050298	12.4374	-24.435298
 163	1	1	-0.0594994	23.062598	11.476	-23.873198
 164	1	1	-0.0775235	22.970598	10.0787	-24.109698
 165	1	1	-0.0775235	24.152498	11.9425	-23.091398
 166	1	3	-0.0728971	22.081698	12.4377	-26.016698
 167	1	1	-0.0830958	23.930998	9.1854	-23.591898
 168	1	1	-0.0830958	25.112898	11.0519	-22.571098
 169	1	1	-0.0836037	25.003198	9.67263	-22.822698
 170	1	2	0.0394838	22.326698	13.4551	-24.141098
 171	1	2	0.0845609	22.200698	9.70232	-24.665998
 172	1	2	0.0845609	24.255498	12.9406	-22.895298
 173	1	2	0.027634	21.362298	13.1865	-26.360298
 174	1	2	0.027634	21.717998	11.4742	-26.381198
 175	1	2	0.0836768	23.848998	8.18364	-23.776198
 176	1	2	0.0836768	25.889798	11.4087	-22.011298
 177	1	2	0.0836455	25.700198	9.02645	-22.447698
 178	1	3	-0.0447519	23.467098	12.7606	-26.706198
 179	1	1	-0.0594994	24.548498	11.8361	-26.220598
 180	1	1	-0.0775235	24.495798	10.4405	-26.476498
 181	1	1	-0.0775235	25.660398	12.3341	-25.491098
 182	1	3	-0.0728971	23.401398	12.7982	-28.285698
 183	1	1	-0.0830958	25.515098	9.57734	-26.026498
 184	1	1	-0.0830958	26.680698	11.4729	-25.039698
 185	1	1	-0.0836037	26.608698	10.0941	-25.308598
 186	1	2	0.0394838	23.711798	13.7836	-26.401998
 187	1	2	0.0845609	23.711398	10.0433	-26.997498
 188	1	2	0.0845609	25.735298	13.3324	-25.283698
 189	1	2	0.027634	22.640398	13.532	-28.566798
 190	1	2	0.027634	23.044798	11.8322	-28.650698
 191	1	2	0.0836768	25.460098	8.57607	-26.223498
 192	1	2	0.0836768	27.473398	11.8505	-24.517298
 193	1	2	0.0836455	27.348698	9.46934	-24.983298
 194	1	3	-0.0447519	24.731998	13.1787	-29.048428
 195	1	1	-0.0594994	25.862398	12.2733	-28.647398
 196	1	1	-0.0775235	25.827098	10.8822	-28.929238
 197	1	1	-0.0775235	27.002298	12.7842	-27.972398
 198	1	3	-0.0728971	24.571498	13.2496	-30.620198
 199	1	1	-0.0830958	26.889498	10.0351	-28.554998
 200	1	1	-0.0830958	28.066198	11.9391	-27.597298
 201	1	1	-0.0836037	28.010098	10.5641	-27.889498
 202	1	2	0.0394838	24.966698	14.2009	-28.733998
 203	1	2	0.0845609	25.023398	10.4762	-29.412908
 204	1	2	0.0845609	27.065898	13.7799	-27.749598
 205	1	2	0.027634	23.784598	13.9772	-30.839128
 206	1	2	0.027634	24.208298	12.2864	-30.985748
 207	1	2	0.0836768	26.845698	9.03659	-28.768598
 208	1	2	0.0836768	28.878798	12.3255	-27.113598
 209	1	2	0.0836455	28.781198	9.95087	-27.619398
 210	1	3	-0.0447519	25.849898	13.6673	-31.449548
 211	1	1	-0.0594994	27.009598	12.763	-31.139898
 212	1	1	-0.0775235	26.971998	11.3788	-31.455968
 213	1	1	-0.0775235	28.181098	13.2695	-30.517968
 214	1	3	-0.0728971	25.601598	13.7791	-33.007308
 215	1	1	-0.0830958	28.062898	10.5349	-31.164208
 216	1	1	-0.0830958	29.273018	12.4279	-30.225768
 217	1	1	-0.0836037	29.214298	11.0602	-30.549328
 218	1	2	0.0394838	26.091498	14.6835	-31.120828
 219	1	2	0.0845609	26.146398	10.9763	-31.904038
 220	1	2	0.0845609	28.247198	14.26	-30.272878
 221	1	2	0.027634	24.785398	14.4908	-33.162498
 222	1	2	0.027634	25.243798	12.8168	-33.380718
 223	1	2	0.0836768	28.017398	9.54187	-31.400708
 224	1	2	0.0836768	30.107778	12.8119	-29.778838
 225	1	2	0.0836455	30.005808	10.4498	-30.338768
 226	1	3	-0.0447519	26.821698	14.2552	-33.892238
 227	1	1	-0.0594994	28.030998	13.3979	-33.648678
 228	1	1	-0.0775235	28.029398	12.017	-33.978238
 229	1	1	-0.0775235	29.212768	13.9432	-33.080388
 230	1	3	-0.0728971	26.492398	14.3694	-35.435188
 231	1	1	-0.0830958	29.163158	11.2115	-33.751218
 232	1	1	-0.0830958	30.348528	13.1392	-32.852938
 233	1	1	-0.0836037	30.323668	11.7729	-33.188778
 234	1	2	0.0394838	27.039798	15.2769	-33.564638
 235	1	2	0.0845609	27.197398	11.5877	-34.389328
 236	1	2	0.0845609	29.254098	14.9329	-32.828658
 237	1	2	0.027634	25.661998	15.073	-35.544798
 238	1	2	0.027634	26.126198	13.405	-35.794688
 239	1	2	0.0836768	29.141388	10.2194	-33.996868
 240	1	2	0.0836768	31.190358	13.5488	-32.444588
 241	1	2	0.0836455	31.146008	11.1894	-33.025448
 242	1	3	-0.0447519	27.662198	14.8604	-36.377588
 243	1	1	-0.0594994	28.876098	13.9885	-36.227208
 244	1	1	-0.0775235	28.849198	12.6155	-36.590358
 245	1	1	-0.0775235	30.090898	14.5166	-35.716548
 246	1	3	-0.0728971	27.255798	15.013	-37.897198
 247	1	1	-0.0830958	29.992478	11.8025	-36.448958
 248	1	1	-0.0830958	31.234768	13.7062	-35.574758
 249	1	1	-0.0836037	31.185898	12.3487	-35.941088
 250	1	2	0.0394838	27.903698	15.8732	-36.038528
 251	1	2	0.0845609	27.993698	12.1986	-36.962948
 252	1	2	0.0845609	30.150848	15.5005	-35.444278
 253	1	2	0.027634	26.408098	15.7027	-37.946594
 254	1	2	0.027634	26.890898	14.052	-38.267267
 255	1	2	0.0836768	29.954188	10.8172	-36.716838
 256	1	2	0.0836768	32.100168	14.1054	-35.206408
 257	1	2	0.0836455	32.015058	11.7611	-35.839578
 258	1	3	-0.0447519	28.370398	15.5554	-38.87803389
 259	1	1	-0.0594994	29.625718	14.736	-38.7902063
 260	1	1	-0.0775235	29.634958	13.3673	-39.167375
 261	1	1	-0.0775235	30.842428	15.3071	-38.331706
 262	1	3	-0.0728971	27.892198	15.6988	-40.376068
 263	1	1	-0.0830958	30.812538	12.5973	-39.089658
 264	1	1	-0.0830958	32.021928	14.5384	-38.253284
 265	1	1	-0.0836037	32.006768	13.1832	-38.632389
 266	1	2	0.0394838	28.586898	16.5744	-38.540786
 267	1	2	0.0845609	28.778898	12.9209	-39.504839
 268	1	2	0.0845609	30.877418	16.2896	-38.052647
 269	1	2	0.027634	27.033498	16.3767	-40.385548
 270	1	2	0.027634	27.524198	14.7325	-40.728868
 271	1	2	0.0836768	30.797888	11.6137	-39.367689
 272	1	2	0.0836768	32.888548	14.9656	-37.92238
 273	1	2	0.0836455	32.860758	12.6255	-38.577558
 274	1	3	-0.0447519	28.953238	16.2535	-41.405878
 275	1	1	-0.0594994	30.209228	15.4279	-41.408608
 276	1	1	-0.0775235	30.196838	14.0659	-41.811698
 277	1	1	-0.0775235	31.451078	15.9908	-41.012068
 278	1	3	-0.0728971	28.387798	16.4245	-42.867748
 279	1	1	-0.0830958	31.378338	13.2964	-41.816838
 280	1	1	-0.0830958	32.633478	15.2237	-41.016438
 281	1	1	-0.0836037	32.597238	13.876	-41.418798
 282	1	2	0.0394838	29.191308	17.266	-41.063588
 283	1	2	0.0845609	29.323078	13.6248	-42.106658
 284	1	2	0.0845609	31.502648	16.9687	-40.717958
 285	1	2	0.027634	27.518998	17.0871	-42.811848
 286	1	2	0.027634	28.016698	15.4605	-43.224168
 287	1	2	0.0836768	31.348868	12.3183	-42.111428
 288	1	2	0.0836768	33.517638	15.6473	-40.728858
 289	1	2	0.0836455	33.453898	13.3197	-41.423928
 290	1	3	-0.0447519	29.380258	17.0242	-43.937408
 291	1	1	-0.0594994	30.655828	16.231	-44.020078
 292	1	1	-0.0775235	30.657758	14.8748	-44.443408
 293	1	1	-0.0775235	31.902588	16.819	-43.678168
 294	1	3	-0.0728971	28.722598	17.2056	-45.358078
 295	1	1	-0.0830958	31.856558	14.136	-44.520998
 296	1	1	-0.0830958	33.102338	16.083	-43.755018
 297	1	1	-0.0836037	33.079608	14.7407	-44.176158
 298	1	2	0.0394838	29.610928	18.0365	-43.589488
 299	1	2	0.0845609	29.781548	14.4158	-44.701558
 300	1	2	0.0845609	31.944648	17.7927	-43.369338
 301	1	2	0.027634	27.832798	17.8305	-45.236268
 302	1	2	0.027634	28.369598	16.2346	-45.713908
 303	1	2	0.0836768	31.836558	13.1621	-44.830468
 304	1	2	0.0836768	33.989158	16.5246	-43.505328
 305	1	2	0.0836455	33.948598	14.2067	-44.233718
 306	1	3	-0.0447519	29.620838	17.8686	-46.471148
 307	1	1	-0.0594994	30.936248	17.1539	-46.615278
 308	1	1	-0.0775235	30.989598	15.8017	-47.043998
 309	1	1	-0.0775235	32.165998	17.8051	-46.327188
 310	1	3	-0.0728971	28.867798	18.0161	-47.850698
 311	1	1	-0.0830958	32.217508	15.1243	-47.180818
 312	1	1	-0.0830958	33.397338	17.1291	-46.463718
 313	1	1	-0.0836037	33.422838	15.7878	-46.890488
 314	1	2	0.0394838	29.812258	18.8906	-46.128708
 315	1	2	0.0845609	30.126098	15.2974	-47.261038
 316	1	2	0.0845609	32.172098	18.7782	-46.016938
 317	1	2	0.027634	27.987398	18.6436	-47.682738
 318	1	2	0.027634	28.493098	17.0382	-48.162768
 319	1	2	0.0836768	32.230338	14.1498	-47.491948
 320	1	2	0.0836768	34.271798	17.6125	-46.253958
 321	1	2	0.0836455	34.312778	15.2961	-46.991068
 322	1	3	-0.0447519	29.691628	18.652	-49.032498
 323	1	1	-0.0594994	30.944318	17.8603	-49.288698
 324	1	1	-0.0775235	30.896178	16.5119	-49.736598
 325	1	1	-0.0775235	32.221638	18.4447	-49.082498
 326	1	3	-0.0728971	28.854698	18.8673	-50.352898
 327	1	1	-0.0830958	32.079798	15.7802	-49.971198
 328	1	1	-0.0830958	33.404678	17.7169	-49.316298
 329	1	1	-0.0836037	33.334668	16.3842	-49.761798
 330	1	2	0.0394838	29.961898	19.657498	-48.693048
 331	1	2	0.0845609	29.996608	16.0545	-49.896098
 332	1	2	0.0845609	32.298878	19.4124	-48.759378
 333	1	2	0.027634	27.979898	19.474998	-50.101398
 334	1	2	0.027634	28.471098	17.9033	-50.694898
 335	1	2	0.0836768	32.026338	14.8124	-50.293898
 336	1	2	0.0836768	34.313798	18.1584	-49.163198
 337	1	2	0.0836455	34.192328	15.8565	-49.932698
 338	1	3	-0.0447519	29.608738	19.579098	-51.543198
 339	1	1	-0.0594994	30.903148	18.893	-51.846798
 340	1	1	-0.0775235	30.926688	17.5532	-52.316498
 341	1	1	-0.0775235	32.145008	19.558398	-51.670498
 342	1	3	-0.0728971	28.754098	19.726198	-52.845198
 343	1	1	-0.0830958	32.143028	16.9018	-52.601098
 344	1	1	-0.0830958	33.363738	18.9082	-51.956098
 345	1	1	-0.0836037	33.362428	17.5798	-52.421998
 346	1	2	0.0394838	29.814058	20.598398	-51.194698
 347	1	2	0.0845609	30.052088	17.0412	-52.456698
 348	1	2	0.0845609	32.169538	20.522398	-51.332498
 349	1	2	0.027634	27.865698	20.258598	-52.492898
 350	1	2	0.027634	28.360698	18.7658	-53.164098
 351	1	2	0.0836768	32.137468	15.9368	-52.939898
 352	1	2	0.0836768	34.248328	19.4011	-51.824898
 353	1	2	0.0836455	34.243828	17.1072	-52.629998
 354	1	3	-0.0447519	29.410098	20.472198	-54.068698
 355	1	1	-0.0594994	30.693118	19.791498	-54.443498
 356	1	1	-0.0775235	30.701088	18.4544	-54.923098
 357	1	1	-0.0775235	31.937088	20.466798	-54.332998
 358	1	3	-0.0728971	28.487298	20.627098	-55.335998
 359	1	1	-0.0830958	31.905698	17.8156	-55.278498
 360	1	1	-0.0830958	33.143368	19.828898	-54.687798
 361	1	1	-0.0836037	33.127618	18.5031	-55.160598
 362	1	2	0.0394838	29.629668	21.488898	-53.728998
 363	1	2	0.0845609	29.824538	17.9355	-55.015998
 364	1	2	0.0845609	31.971628	21.430598	-53.994498
 365	1	2	0.027634	27.623598	21.235298	-55.067698
 366	1	2	0.027634	28.089698	19.654598	-55.625598
 367	1	2	0.0836768	31.890248	16.8522	-55.620398
 368	1	2	0.0836768	34.029278	20.329698	-54.602798
 369	1	2	0.0836455	34.000718	18.0398	-55.417898
 370	1	3	-0.0447519	29.116448	21.346498	-56.581198
 371	1	1	-0.0594994	30.356768	20.638298	-57.039998
 372	1	1	-0.0775235	30.313028	19.3064	-57.534998
 373	1	1	-0.0775235	31.616558	21.290598	-56.998298
 374	1	3	-0.0728971	28.119698	21.550098	-57.782198
 375	1	1	-0.0830958	31.485938	18.6533	-57.968998
 376	1	1	-0.0830958	32.788938	20.640698	-57.430998
 377	1	1	-0.0836037	32.724688	19.3212	-57.915598
 378	1	2	0.0394838	29.375048	22.356398	-56.241998
 379	1	2	0.0845609	29.424308	18.8043	-57.583198
 380	1	2	0.0845609	31.688198	22.250098	-56.650198
 381	1	2	0.027634	27.254398	22.106098	-57.411498
 382	1	2	0.027634	27.744098	20.576798	-58.105698
 383	1	2	0.0836768	31.436058	17.6961	-58.321998
 384	1	2	0.0836768	33.686018	21.128798	-57.391698
 385	1	2	0.0836455	33.574878	18.8499	-58.228498
 386	1	3	-0.0447519	28.690298	22.330798	-59.026596
 387	1	1	-0.0594994	29.979948	21.744898	-59.529896
 388	1	1	-0.0775235	30.024508	20.425498	-60.051296
 389	1	1	-0.0775235	31.189218	22.491198	-59.511296
 390	1	3	-0.0728971	27.635998	22.463798	-60.185396
 391	1	1	-0.0830958	31.224778	19.868598	-60.534196
 392	1	1	-0.0830958	32.393908	21.934598	-59.993296
 393	1	1	-0.0836037	32.411378	20.622398	-60.504496
 394	1	2	0.0394838	28.879898	23.350898	-58.676596
 395	1	2	0.0845609	29.173278	19.857898	-60.084096
 396	1	2	0.0845609	31.198528	23.445498	-59.147696
 397	1	2	0.027634	26.776198	23.014198	-59.790896
 398	1	2	0.027634	27.268898	21.471998	-60.460696
 399	1	2	0.0836768	31.230878	18.9153	-60.905396
 400	1	2	0.0836768	33.253888	22.483898	-59.972796
 401	1	2	0.0836455	33.281468	20.217398	-60.854096
 402	1	3	-0.0447519	28.137998	23.204598	-61.476296
 403	1	1	-0.0594994	29.339998	22.530498	-62.083096
 404	1	1	-0.0775235	29.277208	21.207098	-62.599896
 405	1	1	-0.0775235	30.582008	23.213998	-62.163396
 406	1	3	-0.0728971	27.003798	23.400698	-62.539996
 407	1	1	-0.0830958	30.413108	20.594598	-63.172296
 408	1	1	-0.0830958	31.716738	22.605898	-62.734596
 409	1	1	-0.0836037	31.633448	21.295198	-63.239196
 410	1	2	0.0394838	28.411898	24.213398	-61.148396
 411	1	2	0.0845609	28.401298	20.682598	-62.563096
 412	1	2	0.0845609	30.667098	24.169298	-61.805896
 413	1	2	0.027634	26.171798	23.922598	-62.056496
 414	1	2	0.027634	26.621798	22.423698	-62.846796
 415	1	2	0.0836768	30.349448	19.643798	-63.539096
 416	1	2	0.0836768	32.599558	23.119098	-62.782496
 417	1	2	0.0836455	32.456178	20.854698	-63.653496
 418	1	3	-0.0447519	27.417098	24.226298	-63.808996
 419	1	1	-0.0594994	28.648498	23.673298	-64.474496
 420	1	1	-0.0775235	28.658698	22.367098	-65.032396
 421	1	1	-0.0775235	29.838998	24.443098	-64.570796
 422	1	3	-0.0728971	26.222298	24.366898	-64.812496
 423	1	1	-0.0830958	29.808078	21.848598	-65.662196
 424	1	1	-0.0830958	30.991018	23.926498	-65.201296
 425	1	1	-0.0836037	30.975268	22.628898	-65.747396
 426	1	2	0.0394838	27.629198	25.240098	-63.452796
 427	1	2	0.0845609	27.819598	21.783398	-64.986296
 428	1	2	0.0845609	29.872458	25.387998	-64.183396
 429	1	2	0.027634	25.395598	24.856398	-64.287096
 430	1	2	0.027634	25.866198	23.372598	-65.095496
 431	1	2	0.0836768	29.790298	20.906398	-66.059396
 432	1	2	0.0836768	31.836598	24.495298	-65.263096
 433	1	2	0.0836455	31.807438	22.254098	-66.205796
 434	1	3	-0.0447519	26.532498	25.195298	-66.104896
 435	1	1	-0.0594994	27.717398	24.644598	-66.851696
 436	1	1	-0.0775235	27.697298	23.339398	-67.413696
 437	1	1	-0.0775235	28.894938	25.420698	-67.021496
 438	1	3	-0.0728971	25.265498	25.313898	-67.017196
 439	1	1	-0.0830958	28.806798	22.830898	-68.120376
 440	1	1	-0.0830958	30.006218	24.913998	-67.726696
 441	1	1	-0.0836037	29.961948	23.619198	-68.276996
 442	1	2	0.0394838	26.758098	26.212998	-65.767496
 443	1	2	0.0845609	26.867998	22.749498	-67.312596
 444	1	2	0.0845609	28.947998	26.365498	-66.634296
 445	1	2	0.027634	24.475698	25.806098	-66.439396
 446	1	2	0.027634	24.899298	24.312798	-67.258296
 447	1	2	0.0836768	28.770098	21.890298	-68.519056
 448	1	2	0.0836768	30.842338	25.489398	-67.840836
 449	1	2	0.0836455	30.765118	23.252698	-68.790306
 450	1	3	-0.0447519	25.468198	26.120698	-68.341546
 451	1	1	-0.0594994	26.617198	25.599298	-69.153196
 452	1	1	-0.0775235	26.569998	24.300098	-69.726056
 453	1	1	-0.0775235	27.775798	26.388398	-69.381196
 454	1	3	-0.0728971	24.158198	26.140298	-69.200256
 455	1	1	-0.0830958	27.635298	23.809098	-70.505696
 456	1	1	-0.0830958	28.845198	25.896298	-70.157256
 457	1	1	-0.0836037	28.773898	24.607998	-70.720776
 458	1	2	0.0394838	25.672598	27.155498	-68.042386
 459	1	2	0.0845609	25.755598	23.700298	-69.580056
 460	1	2	0.0845609	27.845998	27.328698	-68.983126
 461	1	2	0.027634	23.358198	26.571098	-68.588996
 462	1	2	0.027634	23.841398	25.123698	-69.427056
 463	1	2	0.0836768	27.578498	22.874798	-70.914696
 464	1	2	0.0836768	29.671248	26.477098	-70.312576
 465	1	2	0.0836455	29.545998	24.253598	-71.286636
 466	1	3	-0.0447519	24.254898	26.934298	-70.535326
 467	1	1	-0.0594994	25.418398	26.590498	-71.393956
 468	1	1	-0.0775235	25.442998	25.324598	-72.019646
 469	1	1	-0.0775235	26.516898	27.473498	-71.611446
 470	1	3	-0.0728971	22.888498	26.976498	-71.311606
 471	1	1	-0.0830958	26.517198	24.947598	-72.844306
 472	1	1	-0.0830958	27.594598	27.097198	-72.436156
 473	1	1	-0.0836037	27.592098	25.831898	-73.053916
 474	1	2	0.0394838	24.495198	27.997198	-70.167436
 475	1	2	0.0845609	24.674898	24.665098	-71.876326
 476	1	2	0.0845609	26.541298	28.392298	-71.162556
 477	1	2	0.027634	22.121098	27.357698	-70.635386
 478	1	2	0.027634	22.600298	25.948098	-71.548596
 479	1	2	0.0836768	26.512398	24.029498	-73.290516
 480	1	2	0.0836768	28.375998	27.738698	-72.584166
 481	1	2	0.0836455	28.367698	25.553898	-73.655076
 482	1	3	-0.0447519	22.855098	27.821798	-72.633606
 483	1	1	-0.0594994	23.967298	27.445998	-73.565366
 484	1	1	-0.0775235	23.941898	26.173198	-74.182376
 485	1	1	-0.0775235	25.076898	28.290998	-73.855126
 486	1	3	-0.0728971	21.435098	27.863298	-73.336596
 487	1	1	-0.0830958	24.962398	25.772898	-75.066706
 488	1	1	-0.0830958	26.093498	27.903898	-74.746336
 489	1	1	-0.0836037	26.033998	26.639698	-75.355626
 490	1	2	0.0394838	23.051798	28.822098	-72.282836
 491	1	2	0.0845609	23.174798	25.526598	-73.991316
 492	1	2	0.0845609	25.177698	29.196138	-73.415526
 493	1	2	0.027634	20.723898	28.312298	-72.634156
 494	1	2	0.027634	21.094198	26.843398	-73.507086
 495	1	2	0.0836768	24.919198	24.851798	-75.501576
 496	1	2	0.0836768	26.874998	28.534698	-74.943236
 497	1	2	0.0836455	26.766398	26.348798	-76.003576
 498	1	3	-0.0447519	21.306398	28.633798	-74.707906
 499	1	1	-0.0594994	22.366798	28.221998	-75.690276
 500	1	1	-0.0775235	22.373798	26.969298	-76.334946
 501	1	1	-0.0775235	23.453298	29.053218	-76.004756
 502	1	3	-0.0728971	19.839498	28.810298	-75.269476
 503	1	1	-0.0830958	23.391998	26.633898	-77.261326
 504	1	1	-0.0830958	24.457898	28.790998	-76.928697
 505	1	1	-0.0836037	24.423598	27.548498	-77.571762
 506	1	2	0.0394838	21.540298	29.677608	-74.505046
 507	1	2	0.0845609	21.636598	26.295398	-76.131266
 508	1	2	0.0845609	23.567798	29.919608	-75.438236
 509	1	2	0.027634	19.217	29.271678	-74.491586
 510	1	2	0.027634	19.4108	27.834698	-75.481606
 511	1	2	0.0836768	23.377298	25.723498	-77.7162727
 512	1	2	0.0836768	25.214298	29.459128	-77.110023
 513	1	2	0.0836455	25.145798	27.308598	-78.250801
 514	1	3	-0.0447519	19.752398	29.726298	-76.541196
 515	1	1	-0.0594994	20.626898	29.140958	-77.607373
 516	1	1	-0.0775235	20.495598	27.852598	-78.186936
 517	1	1	-0.0775235	21.661698	29.945198	-78.082576
 518	1	3	-0.0728971	18.3529	30.105198	-77.123535
 519	1	1	-0.0830958	21.412798	27.406698	-79.173726
 520	1	1	-0.0830958	22.614898	29.497758	-79.011106
 521	1	1	-0.0836037	22.479798	28.231498	-79.584126
 522	1	2	0.0394838	20.134598	30.695578	-76.191736
 523	1	2	0.0845609	19.739298	27.239698	-77.893918
 524	1	2	0.0845609	21.628998	30.898648	-77.75851924
 525	1	2	0.027634	17.7732	30.577618	-76.322796
 526	1	2	0.027634	17.8331	29.185168	-77.38953
 527	1	2	0.0836768	21.311898	26.481598	-79.584106
 528	1	2	0.0836768	23.420098	30.056998	-79.260436
 529	1	2	0.0836455	23.158598	27.910798	-80.278266
 530	1	3	-0.0447519	18.3666	31.093808	-78.359506
 531	1	1	-0.0594994	19.285	30.660808	-79.469336
 532	1	1	-0.0775235	19.1451	29.383728	-80.076586
 533	1	1	-0.0775235	20.304798	31.510778	-79.969716
 534	1	3	-0.0728971	16.9187	31.294348	-78.910876
 535	1	1	-0.0830958	20.014598	28.950648	-81.099966
 536	1	1	-0.0830958	21.129098	31.088718	-81.034806
 537	1	1	-0.0836037	21.028398	29.799368	-81.569636
 538	1	2	0.0394838	18.6959	32.070378	-77.983557
 539	1	2	0.0845609	18.402	28.754198	-79.772906
 540	1	2	0.0845609	20.410798	32.449778	-79.584376
 541	1	2	0.027634	16.3048	31.694838	-78.097458
 542	1	2	0.027634	16.5017	30.316028	-79.163956
 543	1	2	0.0836768	19.901498	28.022398	-81.508206
 544	1	2	0.0836768	21.754198	31.735268	-81.498566
 545	1	2	0.0836455	21.655398	29.498638	-82.319036
 546	1	3	-0.0447519	16.7639	32.246508	-80.145186
 547	1	1	-0.0594994	17.6818	31.899178	-81.290696
 548	1	1	-0.0775235	17.609	30.637648	-81.941816
 549	1	1	-0.0775235	18.6434	32.830638	-81.770186
 550	1	3	-0.0728971	15.2633	32.280588	-80.583966
 551	1	1	-0.0830958	18.4668	30.310588	-83.013386
 552	1	1	-0.0830958	19.491198	32.513378	-82.853626
 553	1	1	-0.0836037	19.4108	31.249178	-83.470126
 554	1	2	0.0394838	17.0049	33.253408	-79.788556
 555	1	2	0.0845609	16.9209	29.944028	-81.637846
 556	1	2	0.0845609	18.7265	33.752508	-81.337136
 557	1	2	0.027634	14.6628	32.605628	-79.727686
 558	1	2	0.027634	14.9328	31.267358	-80.830846
 559	1	2	0.0836768	18.3981	29.393578	-83.461326
 560	1	2	0.0836768	20.163098	33.202418	-83.192536
 561	1	2	0.0836455	20.030598	31.015628	-84.248086
 562	1	3	-0.0447519	14.9483	33.231628	-81.778416
 563	1	1	-0.0594994	15.8293	32.946158	-82.966246
 564	1	1	-0.0775235	15.7817	31.691048	-83.630206
 565	1	1	-0.0775235	16.7355	33.922448	-83.464296
 566	1	3	-0.0728971	13.419	33.184048	-82.114296
 567	1	1	-0.0830958	16.603	31.416528	-84.742806
 568	1	1	-0.0830958	17.5561	33.652138	-84.581866
 569	1	1	-0.0836037	17.4914	32.397568	-85.220006
 570	1	2	0.0394838	15.151	34.247348	-81.422996
 571	1	2	0.0845609	15.144	30.960748	-83.301296
 572	1	2	0.0845609	16.799	34.839588	-83.019136
 573	1	2	0.027634	12.8639	33.518848	-81.231786
 574	1	2	0.027634	13.1105	32.152948	-82.306836
 575	1	2	0.0836768	16.5526	30.503018	-85.201406
 576	1	2	0.0836768	18.1966	34.366908	-84.929976
 577	1	2	0.0836455	18.0852	32.199458	-86.027546
 578	1	3	-0.0447519	13.0078	34.082298	-83.318636
 579	1	1	-0.0594994	13.779	33.694698	-84.552156
 580	1	1	-0.0775235	13.6512	32.409968	-85.152656
 581	1	1	-0.0775235	14.6749	34.620198	-85.150576
 582	1	3	-0.0728971	11.4606	34.087608	-83.553706
 583	1	1	-0.0830958	14.39	32.071758	-86.309166
 584	1	1	-0.0830958	15.412	34.286298	-86.303036
 585	1	1	-0.0836037	15.2697	33.012338	-86.884876
 586	1	2	0.0394838	13.266	35.107558	-83.029466
 587	1	2	0.0845609	13.0184	31.715938	-84.751846
 588	1	2	0.0845609	14.7975	35.554018	-84.747026
 589	1	2	0.027634	10.9685	34.393368	-82.624796
 590	1	2	0.027634	11.1217	33.071118	-83.769146
 591	1	2	0.0836768	14.2867	31.147578	-86.729466
 592	1	2	0.0836768	16.0484	34.972338	-86.716956
 593	1	2	0.0836455	15.8034	32.773068	-87.722066
 594	1	3	-0.0447519	10.9923	35.056898	-84.689136
 595	1	1	-0.0594994	11.7746	34.826398	-85.951756
 596	1	1	-0.0775235	11.7042	33.580918	-86.631106
 597	1	1	-0.0775235	12.6128	35.836058	-86.500546
 598	1	3	-0.0728971	9.44162	34.981488	-84.915076
 599	1	1	-0.0830958	12.4355	33.348698	-87.812896
 600	1	1	-0.0830958	13.3449	35.605918	-87.687206
 601	1	1	-0.0836037	13.2548	34.361758	-88.343896
 602	1	2	0.0394838	11.1953	36.070988	-84.328786
 603	1	2	0.0845609	11.1124	32.828958	-86.266116
 604	1	2	0.0845609	12.6937	36.744438	-86.040856
 605	1	2	0.027634	8.94627	35.277238	-83.984826
 606	1	2	0.027634	9.14732	33.947438	-85.111706
 607	1	2	0.0836768	12.3657	32.443678	-88.286196
 608	1	2	0.0836768	13.9397	36.341098	-88.071296