

################################################################################
##################################    Init    ##################################
################################################################################
units           real
atom_style      full
pair_style      lj/cut/coul/long 12.0  12.0
kspace_style    pppm 1e-4
bond_style      harmonic
angle_style     harmonic
dihedral_style  harmonic
improper_style  umbrella
special_bonds   dreiding
pair_modify     mix arithmetic
read_data       temp.lmps
  orthogonal box = (-19.4414 -19.4414 -19.4414) to (19.4414 19.4414 19.4414)
  1 by 1 by 1 MPI processor grid
  reading atoms ...
  34 atoms
  reading velocities ...
  34 velocities
  scanning bonds ...
  3 = max bonds/atom
  scanning angles ...
  6 = max angles/atom
  scanning dihedrals ...
  15 = max dihedrals/atom
  scanning impropers ...
  2 = max impropers/atom
  reading bonds ...
  35 bonds
  reading angles ...
  60 angles
  reading dihedrals ...
  87 dihedrals
  reading impropers ...
  12 impropers
  4 = max # of 1-2 neighbors
  8 = max # of 1-3 neighbors
  12 = max # of special neighbors
################################################################################

min_style fire
minimize 0.001 0.001 10000 100000
WARNING: Using 'neigh_modify every 1 delay 0 check yes' setting during minimization (src/min.cpp:168)
PPPM initialization ...
WARNING: System is not charge neutral, net charge = -0.0671178 (src/kspace.cpp:302)
  using 12-bit tables for long-range coulomb (src/kspace.cpp:321)
  G vector (1/distance) = 0.163093
  grid = 8 8 8
  stencil order = 5
  estimated absolute RMS force accuracy = 0.000688832
  estimated relative force accuracy = 2.0744e-06
  using double precision FFTs
  3d grid and FFT values/proc = 2197 512
Neighbor list info ...
  update every 1 steps, delay 0 steps, check yes
  max neighbors/atom: 2000, page size: 100000
  master list distance cutoff = 14
  ghost atom cutoff = 14
  binsize = 7, bins = 6 6 6
  1 neighbor lists, perpetual/occasional/extra = 1 0 0
  (1) pair lj/cut/coul/long, perpetual
      attributes: half, newton on
      pair build: half/bin/newton
      stencil: half/bin/3d/newton
      bin: standard
Per MPI rank memory allocation (min/avg/max) = 16.66 | 16.66 | 16.66 Mbytes
Step Temp E_pair E_mol TotEng Press 
       0            0    441.23726    19.552173    460.78944    2034.9607 
      71    7.7230146    29.170436    11.701741    41.631866    18.660023 
Loop time of 0.0527649 on 4 procs for 71 steps with 34 atoms

100.9% CPU use with 1 MPI tasks x 4 OpenMP threads

Minimization stats:
  Stopping criterion = energy tolerance
  Energy initial, next-to-last, final = 
         460.789436206      40.9012630163      40.8721778683
  Force two-norm initial, final = 1229.74 18.2059
  Force max component initial, final = 378.332 6.33628
  Final line search alpha, max atom move = 0 0
  Iterations, force evaluations = 71 71

MPI task timing breakdown:
Section |  min time  |  avg time  |  max time  |%varavg| %total
---------------------------------------------------------------
Pair    | 0.015292   | 0.015292   | 0.015292   |   0.0 | 28.98
Bond    | 0.0013043  | 0.0013043  | 0.0013043  |   0.0 |  2.47
Kspace  | 0.035779   | 0.035779   | 0.035779   |   0.0 | 67.81
Neigh   | 0          | 0          | 0          |   0.0 |  0.00
Comm    | 0.00011253 | 0.00011253 | 0.00011253 |   0.0 |  0.21
Output  | 0          | 0          | 0          |   0.0 |  0.00
Modify  | 0          | 0          | 0          |   0.0 |  0.00
Other   |            | 0.0002773  |            |       |  0.53

Nlocal:    34 ave 34 max 34 min
Histogram: 1 0 0 0 0 0 0 0 0 0
Nghost:    106 ave 106 max 106 min
Histogram: 1 0 0 0 0 0 0 0 0 0
Neighs:    561 ave 561 max 561 min
Histogram: 1 0 0 0 0 0 0 0 0 0

Total # of neighbors = 561
Ave neighs/atom = 16.5
Ave special neighs/atom = 5.58824
Neighbor list builds = 0
Dangerous builds = 0
write_dump all custom pysimm.dump.tmp id q x y z vx vy vz
quit


################################################################################
##################################    Init    ##################################
################################################################################
units           real
atom_style      full
pair_style      lj/cut/coul/long 12.0  12.0
kspace_style    pppm 1e-4
bond_style      harmonic
angle_style     harmonic
dihedral_style  harmonic
improper_style  umbrella
special_bonds   dreiding
pair_modify     mix arithmetic
read_data       temp.lmps
  orthogonal box = (-19.4414 -19.4414 -19.4414) to (19.4414 19.4414 19.4414)
  1 by 1 by 1 MPI processor grid
  reading atoms ...
  50 atoms
  reading velocities ...
  50 velocities
  scanning bonds ...
  3 = max bonds/atom
  scanning angles ...
  6 = max angles/atom
  scanning dihedrals ...
  15 = max dihedrals/atom
  scanning impropers ...
  2 = max impropers/atom
  reading bonds ...
  52 bonds
  reading angles ...
  90 angles
  reading dihedrals ...
  135 dihedrals
  reading impropers ...
  18 impropers
  4 = max # of 1-2 neighbors
  8 = max # of 1-3 neighbors
  12 = max # of special neighbors
################################################################################

min_style fire
minimize 0.001 0.001 10000 100000
WARNING: Using 'neigh_modify every 1 delay 0 check yes' setting during minimization (src/min.cpp:168)
PPPM initialization ...
WARNING: System is not charge neutral, net charge = -0.134236 (src/kspace.cpp:302)
  using 12-bit tables for long-range coulomb (src/kspace.cpp:321)
  G vector (1/distance) = 0.163093
  grid = 8 8 8
  stencil order = 5
  estimated absolute RMS force accuracy = 0.000848075
  estimated relative force accuracy = 2.55395e-06
  using double precision FFTs
  3d grid and FFT values/proc = 2197 512
Neighbor list info ...
  update every 1 steps, delay 0 steps, check yes
  max neighbors/atom: 2000, page size: 100000
  master list distance cutoff = 14
  ghost atom cutoff = 14
  binsize = 7, bins = 6 6 6
  1 neighbor lists, perpetual/occasional/extra = 1 0 0
  (1) pair lj/cut/coul/long, perpetual
      attributes: half, newton on
      pair build: half/bin/newton
      stencil: half/bin/3d/newton
      bin: standard
Per MPI rank memory allocation (min/avg/max) = 16.67 | 16.67 | 16.67 Mbytes
Step Temp E_pair E_mol TotEng Press 
       0            0    250.13771    15.839183    265.97689    1122.9189 
      55    7.2775888    47.036511    19.780074    67.879547    30.018993 
Loop time of 0.0411107 on 4 procs for 55 steps with 50 atoms

101.1% CPU use with 1 MPI tasks x 4 OpenMP threads

Minimization stats:
  Stopping criterion = energy tolerance
  Energy initial, next-to-last, final = 
         265.976891828      66.8758204837      66.8165848018
  Force two-norm initial, final = 569.34 19.9862
  Force max component initial, final = 162.58 6.13485
  Final line search alpha, max atom move = 0 0
  Iterations, force evaluations = 55 55

MPI task timing breakdown:
Section |  min time  |  avg time  |  max time  |%varavg| %total
---------------------------------------------------------------
Pair    | 0.013286   | 0.013286   | 0.013286   |   0.0 | 32.32
Bond    | 0.021606   | 0.021606   | 0.021606   |   0.0 | 52.56
Kspace  | 0.005801   | 0.005801   | 0.005801   |   0.0 | 14.11
Neigh   | 0          | 0          | 0          |   0.0 |  0.00
Comm    | 0.00015445 | 0.00015445 | 0.00015445 |   0.0 |  0.38
Output  | 0          | 0          | 0          |   0.0 |  0.00
Modify  | 0          | 0          | 0          |   0.0 |  0.00
Other   |            | 0.0002634  |            |       |  0.64

Nlocal:    50 ave 50 max 50 min
Histogram: 1 0 0 0 0 0 0 0 0 0
Nghost:    218 ave 218 max 218 min
Histogram: 1 0 0 0 0 0 0 0 0 0
Neighs:    1225 ave 1225 max 1225 min
Histogram: 1 0 0 0 0 0 0 0 0 0

Total # of neighbors = 1225
Ave neighs/atom = 24.5
Ave special neighs/atom = 5.68
Neighbor list builds = 0
Dangerous builds = 0
write_dump all custom pysimm.dump.tmp id q x y z vx vy vz
quit


################################################################################
##################################    Init    ##################################
################################################################################
units           real
atom_style      full
pair_style      lj/cut/coul/long 12.0  12.0
kspace_style    pppm 1e-4
bond_style      harmonic
angle_style     harmonic
dihedral_style  harmonic
improper_style  umbrella
special_bonds   dreiding
pair_modify     mix arithmetic
read_data       temp.lmps
  orthogonal box = (-19.4414 -19.4414 -19.4414) to (19.4414 19.4414 19.4414)
  1 by 1 by 1 MPI processor grid
  reading atoms ...
  66 atoms
  reading velocities ...
  66 velocities
  scanning bonds ...
  3 = max bonds/atom
  scanning angles ...
  6 = max angles/atom
  scanning dihedrals ...
  15 = max dihedrals/atom
  scanning impropers ...
  2 = max impropers/atom
  reading bonds ...
  69 bonds
  reading angles ...
  120 angles
  reading dihedrals ...
  183 dihedrals
  reading impropers ...
  24 impropers
  4 = max # of 1-2 neighbors
  8 = max # of 1-3 neighbors
  12 = max # of special neighbors
################################################################################

min_style fire
minimize 0.001 0.001 10000 100000
WARNING: Using 'neigh_modify every 1 delay 0 check yes' setting during minimization (src/min.cpp:168)
PPPM initialization ...
WARNING: System is not charge neutral, net charge = -0.201354 (src/kspace.cpp:302)
  using 12-bit tables for long-range coulomb (src/kspace.cpp:321)
  G vector (1/distance) = 0.163093
  grid = 8 8 8
  stencil order = 5
  estimated absolute RMS force accuracy = 0.000981906
  estimated relative force accuracy = 2.95698e-06
  using double precision FFTs
  3d grid and FFT values/proc = 2197 512
Neighbor list info ...
  update every 1 steps, delay 0 steps, check yes
  max neighbors/atom: 2000, page size: 100000
  master list distance cutoff = 14
  ghost atom cutoff = 14
  binsize = 7, bins = 6 6 6
  1 neighbor lists, perpetual/occasional/extra = 1 0 0
  (1) pair lj/cut/coul/long, perpetual
      attributes: half, newton on
      pair build: half/bin/newton
      stencil: half/bin/3d/newton
      bin: standard
Per MPI rank memory allocation (min/avg/max) = 16.69 | 16.69 | 16.69 Mbytes
Step Temp E_pair E_mol TotEng Press 
       0            0    217.85814    24.431129    242.28927    875.46693 
      38    2.7728951    74.134737    26.749137    101.42113    131.22199 
Loop time of 0.0479682 on 4 procs for 38 steps with 66 atoms

93.2% CPU use with 1 MPI tasks x 4 OpenMP threads

Minimization stats:
  Stopping criterion = energy tolerance
  Energy initial, next-to-last, final = 
         242.289266917       100.97816978      100.883873493
  Force two-norm initial, final = 429.003 38.3007
  Force max component initial, final = 120.58 10.1173
  Final line search alpha, max atom move = 0 0
  Iterations, force evaluations = 38 38

MPI task timing breakdown:
Section |  min time  |  avg time  |  max time  |%varavg| %total
---------------------------------------------------------------
Pair    | 0.013484   | 0.013484   | 0.013484   |   0.0 | 28.11
Bond    | 0.0095945  | 0.0095945  | 0.0095945  |   0.0 | 20.00
Kspace  | 0.024477   | 0.024477   | 0.024477   |   0.0 | 51.03
Neigh   | 0          | 0          | 0          |   0.0 |  0.00
Comm    | 0.00015401 | 0.00015401 | 0.00015401 |   0.0 |  0.32
Output  | 0          | 0          | 0          |   0.0 |  0.00
Modify  | 0          | 0          | 0          |   0.0 |  0.00
Other   |            | 0.0002584  |            |       |  0.54

Nlocal:    66 ave 66 max 66 min
Histogram: 1 0 0 0 0 0 0 0 0 0
Nghost:    328 ave 328 max 328 min
Histogram: 1 0 0 0 0 0 0 0 0 0
Neighs:    2145 ave 2145 max 2145 min
Histogram: 1 0 0 0 0 0 0 0 0 0

Total # of neighbors = 2145
Ave neighs/atom = 32.5
Ave special neighs/atom = 5.72727
Neighbor list builds = 0
Dangerous builds = 0
write_dump all custom pysimm.dump.tmp id q x y z vx vy vz
quit


################################################################################
##################################    Init    ##################################
################################################################################
units           real
atom_style      full
pair_style      lj/cut/coul/long 12.0  12.0
kspace_style    pppm 1e-4
bond_style      harmonic
angle_style     harmonic
dihedral_style  harmonic
improper_style  umbrella
special_bonds   dreiding
pair_modify     mix arithmetic
read_data       temp.lmps
  orthogonal box = (-19.4414 -19.4414 -19.4414) to (19.4414 19.4414 19.4414)
  1 by 1 by 1 MPI processor grid
  reading atoms ...
  82 atoms
  reading velocities ...
  82 velocities
  scanning bonds ...
  3 = max bonds/atom
  scanning angles ...
  6 = max angles/atom
  scanning dihedrals ...
  15 = max dihedrals/atom
  scanning impropers ...
  2 = max impropers/atom
  reading bonds ...
  86 bonds
  reading angles ...
  150 angles
  reading dihedrals ...
  231 dihedrals
  reading impropers ...
  30 impropers
  4 = max # of 1-2 neighbors
  8 = max # of 1-3 neighbors
  12 = max # of special neighbors
################################################################################

min_style fire
minimize 0.001 0.001 10000 100000
WARNING: Using 'neigh_modify every 1 delay 0 check yes' setting during minimization (src/min.cpp:168)
PPPM initialization ...
WARNING: System is not charge neutral, net charge = -0.268472 (src/kspace.cpp:302)
  using 12-bit tables for long-range coulomb (src/kspace.cpp:321)
  G vector (1/distance) = 0.0346803
  grid = 1 1 1
  stencil order = 5
  estimated absolute RMS force accuracy = 0.0428537
  estimated relative force accuracy = 0.000129053
  using double precision FFTs
  3d grid and FFT values/proc = 216 1
Neighbor list info ...
  update every 1 steps, delay 0 steps, check yes
  max neighbors/atom: 2000, page size: 100000
  master list distance cutoff = 14
  ghost atom cutoff = 14
  binsize = 7, bins = 6 6 6
  1 neighbor lists, perpetual/occasional/extra = 1 0 0
  (1) pair lj/cut/coul/long, perpetual
      attributes: half, newton on
      pair build: half/bin/newton
      stencil: half/bin/3d/newton
      bin: standard
Per MPI rank memory allocation (min/avg/max) = 16.57 | 16.57 | 16.57 Mbytes
Step Temp E_pair E_mol TotEng Press 
       0            0    218.29146    31.981481    250.27294    854.97768 
      32    29.791739    98.717985    32.654364    138.56543    201.91605 
Loop time of 0.048917 on 4 procs for 32 steps with 82 atoms

102.3% CPU use with 1 MPI tasks x 4 OpenMP threads

Minimization stats:
  Stopping criterion = energy tolerance
  Energy initial, next-to-last, final = 
         250.272940026      131.356080692      131.372349093
  Force two-norm initial, final = 362.532 65.4043
  Force max component initial, final = 93.111 14.7403
  Final line search alpha, max atom move = 0 0
  Iterations, force evaluations = 32 32

MPI task timing breakdown:
Section |  min time  |  avg time  |  max time  |%varavg| %total
---------------------------------------------------------------
Pair    | 0.03101    | 0.03101    | 0.03101    |   0.0 | 63.39
Bond    | 0.0014909  | 0.0014909  | 0.0014909  |   0.0 |  3.05
Kspace  | 0.01612    | 0.01612    | 0.01612    |   0.0 | 32.95
Neigh   | 0          | 0          | 0          |   0.0 |  0.00
Comm    | 0.00011152 | 0.00011152 | 0.00011152 |   0.0 |  0.23
Output  | 0          | 0          | 0          |   0.0 |  0.00
Modify  | 0          | 0          | 0          |   0.0 |  0.00
Other   |            | 0.0001845  |            |       |  0.38

Nlocal:    82 ave 82 max 82 min
Histogram: 1 0 0 0 0 0 0 0 0 0
Nghost:    436 ave 436 max 436 min
Histogram: 1 0 0 0 0 0 0 0 0 0
Neighs:    3308 ave 3308 max 3308 min
Histogram: 1 0 0 0 0 0 0 0 0 0

Total # of neighbors = 3308
Ave neighs/atom = 40.3415
Ave special neighs/atom = 5.7561
Neighbor list builds = 0
Dangerous builds = 0
write_dump all custom pysimm.dump.tmp id q x y z vx vy vz
quit


################################################################################
##################################    Init    ##################################
################################################################################
units           real
atom_style      full
pair_style      lj/cut/coul/long 12.0  12.0
kspace_style    pppm 1e-4
bond_style      harmonic
angle_style     harmonic
dihedral_style  harmonic
improper_style  umbrella
special_bonds   dreiding
pair_modify     mix arithmetic
read_data       temp.lmps
  orthogonal box = (-19.4414 -19.4414 -19.4414) to (19.4414 19.4414 19.4414)
  1 by 1 by 1 MPI processor grid
  reading atoms ...
  98 atoms
  reading velocities ...
  98 velocities
  scanning bonds ...
  3 = max bonds/atom
  scanning angles ...
  6 = max angles/atom
  scanning dihedrals ...
  15 = max dihedrals/atom
  scanning impropers ...
  2 = max impropers/atom
  reading bonds ...
  103 bonds
  reading angles ...
  180 angles
  reading dihedrals ...
  279 dihedrals
  reading impropers ...
  36 impropers
  4 = max # of 1-2 neighbors
  8 = max # of 1-3 neighbors
  12 = max # of special neighbors
################################################################################

min_style fire
minimize 0.001 0.001 10000 100000
WARNING: Using 'neigh_modify every 1 delay 0 check yes' setting during minimization (src/min.cpp:168)
PPPM initialization ...
WARNING: System is not charge neutral, net charge = -0.33559 (src/kspace.cpp:302)
  using 12-bit tables for long-range coulomb (src/kspace.cpp:321)
  G vector (1/distance) = 0.0638208
  grid = 2 2 2
  stencil order = 5
  estimated absolute RMS force accuracy = 0.0310847
  estimated relative force accuracy = 9.36107e-05
  using double precision FFTs
  3d grid and FFT values/proc = 343 8
Neighbor list info ...
  update every 1 steps, delay 0 steps, check yes
  max neighbors/atom: 2000, page size: 100000
  master list distance cutoff = 14
  ghost atom cutoff = 14
  binsize = 7, bins = 6 6 6
  1 neighbor lists, perpetual/occasional/extra = 1 0 0
  (1) pair lj/cut/coul/long, perpetual
      attributes: half, newton on
      pair build: half/bin/newton
      stencil: half/bin/3d/newton
      bin: standard
Per MPI rank memory allocation (min/avg/max) = 16.6 | 16.6 | 16.6 Mbytes
Step Temp E_pair E_mol TotEng Press 
       0            0    234.86359    38.190245    273.05384    880.58492 
      32     21.04309    127.44868    39.382443    172.91549    272.98731 
Loop time of 0.0752148 on 4 procs for 32 steps with 98 atoms

85.9% CPU use with 1 MPI tasks x 4 OpenMP threads

Minimization stats:
  Stopping criterion = energy tolerance
  Energy initial, next-to-last, final = 
         273.053837728      166.936422545      166.831124991
  Force two-norm initial, final = 347.063 55.1212
  Force max component initial, final = 86.7906 13.0863
  Final line search alpha, max atom move = 0 0
  Iterations, force evaluations = 32 32

MPI task timing breakdown:
Section |  min time  |  avg time  |  max time  |%varavg| %total
---------------------------------------------------------------
Pair    | 0.070175   | 0.070175   | 0.070175   |   0.0 | 93.30
Bond    | 0.0018506  | 0.0018506  | 0.0018506  |   0.0 |  2.46
Kspace  | 0.0027829  | 0.0027829  | 0.0027829  |   0.0 |  3.70
Neigh   | 0          | 0          | 0          |   0.0 |  0.00
Comm    | 0.00015046 | 0.00015046 | 0.00015046 |   0.0 |  0.20
Output  | 0          | 0          | 0          |   0.0 |  0.00
Modify  | 0          | 0          | 0          |   0.0 |  0.00
Other   |            | 0.0002558  |            |       |  0.34

Nlocal:    98 ave 98 max 98 min
Histogram: 1 0 0 0 0 0 0 0 0 0
Nghost:    548 ave 548 max 548 min
Histogram: 1 0 0 0 0 0 0 0 0 0
Neighs:    4514 ave 4514 max 4514 min
Histogram: 1 0 0 0 0 0 0 0 0 0

Total # of neighbors = 4514
Ave neighs/atom = 46.0612
Ave special neighs/atom = 5.77551
Neighbor list builds = 0
Dangerous builds = 0
write_dump all custom pysimm.dump.tmp id q x y z vx vy vz
quit


################################################################################
##################################    Init    ##################################
################################################################################
units           real
atom_style      full
pair_style      lj/cut/coul/long 12.0  12.0
kspace_style    pppm 1e-4
bond_style      harmonic
angle_style     harmonic
dihedral_style  harmonic
improper_style  umbrella
special_bonds   dreiding
pair_modify     mix arithmetic
read_data       temp.lmps
  orthogonal box = (-19.4414 -19.4414 -19.4414) to (19.4414 19.4414 19.4414)
  1 by 1 by 1 MPI processor grid
  reading atoms ...
  114 atoms
  reading velocities ...
  114 velocities
  scanning bonds ...
  3 = max bonds/atom
  scanning angles ...
  6 = max angles/atom
  scanning dihedrals ...
  15 = max dihedrals/atom
  scanning impropers ...
  2 = max impropers/atom
  reading bonds ...
  120 bonds
  reading angles ...
  210 angles
  reading dihedrals ...
  327 dihedrals
  reading impropers ...
  42 impropers
  4 = max # of 1-2 neighbors
  8 = max # of 1-3 neighbors
  12 = max # of special neighbors
################################################################################

min_style fire
minimize 0.001 0.001 10000 100000
WARNING: Using 'neigh_modify every 1 delay 0 check yes' setting during minimization (src/min.cpp:168)
PPPM initialization ...
WARNING: System is not charge neutral, net charge = -0.402708 (src/kspace.cpp:302)
  using 12-bit tables for long-range coulomb (src/kspace.cpp:321)
  G vector (1/distance) = 0.0638211
  grid = 2 2 2
  stencil order = 5
  estimated absolute RMS force accuracy = 0.0336026
  estimated relative force accuracy = 0.000101193
  using double precision FFTs
  3d grid and FFT values/proc = 343 8
Neighbor list info ...
  update every 1 steps, delay 0 steps, check yes
  max neighbors/atom: 2000, page size: 100000
  master list distance cutoff = 14
  ghost atom cutoff = 14
  binsize = 7, bins = 6 6 6
  1 neighbor lists, perpetual/occasional/extra = 1 0 0
  (1) pair lj/cut/coul/long, perpetual
      attributes: half, newton on
      pair build: half/bin/newton
      stencil: half/bin/3d/newton
      bin: standard
Per MPI rank memory allocation (min/avg/max) = 16.61 | 16.61 | 16.61 Mbytes
Step Temp E_pair E_mol TotEng Press 
       0            0    276.62575     46.39901    323.02476    1004.5413 
      35    8.8312593    164.14316    43.146511    210.26432    405.18369 
Loop time of 0.0727528 on 4 procs for 35 steps with 114 atoms

93.5% CPU use with 1 MPI tasks x 4 OpenMP threads

Minimization stats:
  Stopping criterion = energy tolerance
  Energy initial, next-to-last, final = 
         323.024764228      207.252322571      207.289672631
  Force two-norm initial, final = 369.607 47.262
  Force max component initial, final = 90.6536 12.185
  Final line search alpha, max atom move = 0 0
  Iterations, force evaluations = 35 35

MPI task timing breakdown:
Section |  min time  |  avg time  |  max time  |%varavg| %total
---------------------------------------------------------------
Pair    | 0.048994   | 0.048994   | 0.048994   |   0.0 | 67.34
Bond    | 0.0021579  | 0.0021579  | 0.0021579  |   0.0 |  2.97
Kspace  | 0.021177   | 0.021177   | 0.021177   |   0.0 | 29.11
Neigh   | 0          | 0          | 0          |   0.0 |  0.00
Comm    | 0.00017738 | 0.00017738 | 0.00017738 |   0.0 |  0.24
Output  | 0          | 0          | 0          |   0.0 |  0.00
Modify  | 0          | 0          | 0          |   0.0 |  0.00
Other   |            | 0.0002469  |            |       |  0.34

Nlocal:    114 ave 114 max 114 min
Histogram: 1 0 0 0 0 0 0 0 0 0
Nghost:    660 ave 660 max 660 min
Histogram: 1 0 0 0 0 0 0 0 0 0
Neighs:    5715 ave 5715 max 5715 min
Histogram: 1 0 0 0 0 0 0 0 0 0

Total # of neighbors = 5715
Ave neighs/atom = 50.1316
Ave special neighs/atom = 5.78947
Neighbor list builds = 0
Dangerous builds = 0
write_dump all custom pysimm.dump.tmp id q x y z vx vy vz
quit


################################################################################
##################################    Init    ##################################
################################################################################
units           real
atom_style      full
pair_style      lj/cut/coul/long 12.0  12.0
kspace_style    pppm 1e-4
bond_style      harmonic
angle_style     harmonic
dihedral_style  harmonic
improper_style  umbrella
special_bonds   dreiding
pair_modify     mix arithmetic
read_data       temp.lmps
  orthogonal box = (-19.4414 -19.4414 -19.4414) to (19.4414 19.4414 19.4414)
  1 by 1 by 1 MPI processor grid
  reading atoms ...
  130 atoms
  reading velocities ...
  130 velocities
  scanning bonds ...
  3 = max bonds/atom
  scanning angles ...
  6 = max angles/atom
  scanning dihedrals ...
  15 = max dihedrals/atom
  scanning impropers ...
  2 = max impropers/atom
  reading bonds ...
  137 bonds
  reading angles ...
  240 angles
  reading dihedrals ...
  375 dihedrals
  reading impropers ...
  48 impropers
  4 = max # of 1-2 neighbors
  8 = max # of 1-3 neighbors
  12 = max # of special neighbors
################################################################################

min_style fire
minimize 0.001 0.001 10000 100000
WARNING: Using 'neigh_modify every 1 delay 0 check yes' setting during minimization (src/min.cpp:168)
PPPM initialization ...
WARNING: System is not charge neutral, net charge = -0.469826 (src/kspace.cpp:302)
  using 12-bit tables for long-range coulomb (src/kspace.cpp:321)
  G vector (1/distance) = 0.0638207
  grid = 2 2 2
  stencil order = 5
  estimated absolute RMS force accuracy = 0.0359432
  estimated relative force accuracy = 0.000108242
  using double precision FFTs
  3d grid and FFT values/proc = 343 8
Neighbor list info ...
  update every 1 steps, delay 0 steps, check yes
  max neighbors/atom: 2000, page size: 100000
  master list distance cutoff = 14
  ghost atom cutoff = 14
  binsize = 7, bins = 6 6 6
  1 neighbor lists, perpetual/occasional/extra = 1 0 0
  (1) pair lj/cut/coul/long, perpetual
      attributes: half, newton on
      pair build: half/bin/newton
      stencil: half/bin/3d/newton
      bin: standard
Per MPI rank memory allocation (min/avg/max) = 16.62 | 16.62 | 16.62 Mbytes
Step Temp E_pair E_mol TotEng Press 
       0            0    308.04114    49.012059     357.0532    1114.0785 
      38    1.9221434    198.30556    49.540318    248.58499    519.64683 
Loop time of 0.0700498 on 4 procs for 38 steps with 130 atoms

89.3% CPU use with 1 MPI tasks x 4 OpenMP threads

Minimization stats:
  Stopping criterion = energy tolerance
  Energy initial, next-to-last, final = 
         357.053197996      247.974392397      247.845881725
  Force two-norm initial, final = 350.429 48.9524
  Force max component initial, final = 83.6163 13.355
  Final line search alpha, max atom move = 0 0
  Iterations, force evaluations = 38 38

MPI task timing breakdown:
Section |  min time  |  avg time  |  max time  |%varavg| %total
---------------------------------------------------------------
Pair    | 0.053181   | 0.053181   | 0.053181   |   0.0 | 75.92
Bond    | 0.011929   | 0.011929   | 0.011929   |   0.0 | 17.03
Kspace  | 0.0042866  | 0.0042866  | 0.0042866  |   0.0 |  6.12
Neigh   | 0          | 0          | 0          |   0.0 |  0.00
Comm    | 0.00029974 | 0.00029974 | 0.00029974 |   0.0 |  0.43
Output  | 0          | 0          | 0          |   0.0 |  0.00
Modify  | 0          | 0          | 0          |   0.0 |  0.00
Other   |            | 0.0003529  |            |       |  0.50

Nlocal:    130 ave 130 max 130 min
Histogram: 1 0 0 0 0 0 0 0 0 0
Nghost:    772 ave 772 max 772 min
Histogram: 1 0 0 0 0 0 0 0 0 0
Neighs:    6926 ave 6926 max 6926 min
Histogram: 1 0 0 0 0 0 0 0 0 0

Total # of neighbors = 6926
Ave neighs/atom = 53.2769
Ave special neighs/atom = 5.8
Neighbor list builds = 0
Dangerous builds = 0
write_dump all custom pysimm.dump.tmp id q x y z vx vy vz
quit


################################################################################
##################################    Init    ##################################
################################################################################
units           real
atom_style      full
pair_style      lj/cut/coul/long 12.0  12.0
kspace_style    pppm 1e-4
bond_style      harmonic
angle_style     harmonic
dihedral_style  harmonic
improper_style  umbrella
special_bonds   dreiding
pair_modify     mix arithmetic
read_data       temp.lmps
  orthogonal box = (-19.4414 -19.4414 -19.4414) to (19.4414 19.4414 19.4414)
  1 by 1 by 1 MPI processor grid
  reading atoms ...
  146 atoms
  reading velocities ...
  146 velocities
  scanning bonds ...
  3 = max bonds/atom
  scanning angles ...
  6 = max angles/atom
  scanning dihedrals ...
  15 = max dihedrals/atom
  scanning impropers ...
  2 = max impropers/atom
  reading bonds ...
  154 bonds
  reading angles ...
  270 angles
  reading dihedrals ...
  423 dihedrals
  reading impropers ...
  54 impropers
  4 = max # of 1-2 neighbors
  8 = max # of 1-3 neighbors
  12 = max # of special neighbors
################################################################################

min_style fire
minimize 0.001 0.001 10000 100000
WARNING: Using 'neigh_modify every 1 delay 0 check yes' setting during minimization (src/min.cpp:168)
PPPM initialization ...
WARNING: System is not charge neutral, net charge = -0.536944 (src/kspace.cpp:302)
  using 12-bit tables for long-range coulomb (src/kspace.cpp:321)
  G vector (1/distance) = 0.0638222
  grid = 2 2 2
  stencil order = 5
  estimated absolute RMS force accuracy = 0.0381445
  estimated relative force accuracy = 0.000114871
  using double precision FFTs
  3d grid and FFT values/proc = 343 8
Neighbor list info ...
  update every 1 steps, delay 0 steps, check yes
  max neighbors/atom: 2000, page size: 100000
  master list distance cutoff = 14
  ghost atom cutoff = 14
  binsize = 7, bins = 6 6 6
  1 neighbor lists, perpetual/occasional/extra = 1 0 0
  (1) pair lj/cut/coul/long, perpetual
      attributes: half, newton on
      pair build: half/bin/newton
      stencil: half/bin/3d/newton
      bin: standard
Per MPI rank memory allocation (min/avg/max) = 16.63 | 16.63 | 16.63 Mbytes
Step Temp E_pair E_mol TotEng Press 
       0            0    329.21775    55.155989    384.37374    1168.3468 
      21    143.49471    229.49448    58.784368    350.29977    688.99574 
Loop time of 0.0566795 on 4 procs for 21 steps with 146 atoms

91.7% CPU use with 1 MPI tasks x 4 OpenMP threads

Minimization stats:
  Stopping criterion = energy tolerance
  Energy initial, next-to-last, final = 
         384.373741316       288.05858744      288.278847922
  Force two-norm initial, final = 325.864 120.16
  Force max component initial, final = 78.0559 31.1856
  Final line search alpha, max atom move = 0 0
  Iterations, force evaluations = 21 21

MPI task timing breakdown:
Section |  min time  |  avg time  |  max time  |%varavg| %total
---------------------------------------------------------------
Pair    | 0.051813   | 0.051813   | 0.051813   |   0.0 | 91.41
Bond    | 0.0019118  | 0.0019118  | 0.0019118  |   0.0 |  3.37
Kspace  | 0.0025422  | 0.0025422  | 0.0025422  |   0.0 |  4.49
Neigh   | 0          | 0          | 0          |   0.0 |  0.00
Comm    | 0.00018128 | 0.00018128 | 0.00018128 |   0.0 |  0.32
Output  | 0          | 0          | 0          |   0.0 |  0.00
Modify  | 0          | 0          | 0          |   0.0 |  0.00
Other   |            | 0.0002315  |            |       |  0.41

Nlocal:    146 ave 146 max 146 min
Histogram: 1 0 0 0 0 0 0 0 0 0
Nghost:    884 ave 884 max 884 min
Histogram: 1 0 0 0 0 0 0 0 0 0
Neighs:    8136 ave 8136 max 8136 min
Histogram: 1 0 0 0 0 0 0 0 0 0

Total # of neighbors = 8136
Ave neighs/atom = 55.726
Ave special neighs/atom = 5.80822
Neighbor list builds = 0
Dangerous builds = 0
write_dump all custom pysimm.dump.tmp id q x y z vx vy vz
quit


################################################################################
##################################    Init    ##################################
################################################################################
units           real
atom_style      full
pair_style      lj/cut/coul/long 12.0  12.0
kspace_style    pppm 1e-4
bond_style      harmonic
angle_style     harmonic
dihedral_style  harmonic
improper_style  umbrella
special_bonds   dreiding
pair_modify     mix arithmetic
read_data       temp.lmps
  orthogonal box = (-19.4414 -19.4414 -19.4414) to (19.4414 19.4414 19.4414)
  1 by 1 by 1 MPI processor grid
  reading atoms ...
  162 atoms
  reading velocities ...
  162 velocities
  scanning bonds ...
  3 = max bonds/atom
  scanning angles ...
  6 = max angles/atom
  scanning dihedrals ...
  15 = max dihedrals/atom
  scanning impropers ...
  2 = max impropers/atom
  reading bonds ...
  171 bonds
  reading angles ...
  300 angles
  reading dihedrals ...
  471 dihedrals
  reading impropers ...
  60 impropers
  4 = max # of 1-2 neighbors
  8 = max # of 1-3 neighbors
  12 = max # of special neighbors
################################################################################

min_style fire
minimize 0.001 0.001 10000 100000
WARNING: Using 'neigh_modify every 1 delay 0 check yes' setting during minimization (src/min.cpp:168)
PPPM initialization ...
WARNING: System is not charge neutral, net charge = -0.604062 (src/kspace.cpp:302)
  using 12-bit tables for long-range coulomb (src/kspace.cpp:321)
  G vector (1/distance) = 0.0882432
  grid = 3 3 3
  stencil order = 5
  estimated absolute RMS force accuracy = 0.0235603
  estimated relative force accuracy = 7.09512e-05
  using double precision FFTs
  3d grid and FFT values/proc = 512 27
Neighbor list info ...
  update every 1 steps, delay 0 steps, check yes
  max neighbors/atom: 2000, page size: 100000
  master list distance cutoff = 14
  ghost atom cutoff = 14
  binsize = 7, bins = 6 6 6
  1 neighbor lists, perpetual/occasional/extra = 1 0 0
  (1) pair lj/cut/coul/long, perpetual
      attributes: half, newton on
      pair build: half/bin/newton
      stencil: half/bin/3d/newton
      bin: standard
Per MPI rank memory allocation (min/avg/max) = 16.65 | 16.65 | 16.65 Mbytes
Step Temp E_pair E_mol TotEng Press 
       0            0    354.94864    65.008644    419.95728    1290.3328 
      45    39.725628    245.96767    64.175853    329.20826    640.33669 
Loop time of 0.0536978 on 4 procs for 45 steps with 162 atoms

113.4% CPU use with 1 MPI tasks x 4 OpenMP threads

Minimization stats:
  Stopping criterion = energy tolerance
  Energy initial, next-to-last, final = 
         419.957279801      310.365454677      310.143518897
  Force two-norm initial, final = 334.59 98.3311
  Force max component initial, final = 85.0183 23.3413
  Final line search alpha, max atom move = 0 0
  Iterations, force evaluations = 45 45

MPI task timing breakdown:
Section |  min time  |  avg time  |  max time  |%varavg| %total
---------------------------------------------------------------
Pair    | 0.026266   | 0.026266   | 0.026266   |   0.0 | 48.91
Bond    | 0.0043702  | 0.0043702  | 0.0043702  |   0.0 |  8.14
Kspace  | 0.022139   | 0.022139   | 0.022139   |   0.0 | 41.23
Neigh   | 0          | 0          | 0          |   0.0 |  0.00
Comm    | 0.00044295 | 0.00044295 | 0.00044295 |   0.0 |  0.82
Output  | 0          | 0          | 0          |   0.0 |  0.00
Modify  | 0          | 0          | 0          |   0.0 |  0.00
Other   |            | 0.0004793  |            |       |  0.89

Nlocal:    162 ave 162 max 162 min
Histogram: 1 0 0 0 0 0 0 0 0 0
Nghost:    996 ave 996 max 996 min
Histogram: 1 0 0 0 0 0 0 0 0 0
Neighs:    9334 ave 9334 max 9334 min
Histogram: 1 0 0 0 0 0 0 0 0 0

Total # of neighbors = 9334
Ave neighs/atom = 57.6173
Ave special neighs/atom = 5.81481
Neighbor list builds = 0
Dangerous builds = 0
write_dump all custom pysimm.dump.tmp id q x y z vx vy vz
quit


################################################################################
##################################    Init    ##################################
################################################################################
units           real
atom_style      full
pair_style      lj/cut/coul/long 12.0  12.0
kspace_style    pppm 1e-4
bond_style      harmonic
angle_style     harmonic
dihedral_style  harmonic
improper_style  umbrella
special_bonds   dreiding
pair_modify     mix arithmetic
read_data       temp.lmps
  orthogonal box = (-19.4414 -19.4414 -19.4414) to (19.4414 19.4414 19.4414)
  1 by 1 by 1 MPI processor grid
  reading atoms ...
  178 atoms
  reading velocities ...
  178 velocities
  scanning bonds ...
  3 = max bonds/atom
  scanning angles ...
  6 = max angles/atom
  scanning dihedrals ...
  15 = max dihedrals/atom
  scanning impropers ...
  2 = max impropers/atom
  reading bonds ...
  188 bonds
  reading angles ...
  330 angles
  reading dihedrals ...
  519 dihedrals
  reading impropers ...
  66 impropers
  4 = max # of 1-2 neighbors
  8 = max # of 1-3 neighbors
  12 = max # of special neighbors
################################################################################

min_style fire
minimize 0.001 0.001 10000 100000
WARNING: Using 'neigh_modify every 1 delay 0 check yes' setting during minimization (src/min.cpp:168)
PPPM initialization ...
WARNING: System is not charge neutral, net charge = -0.67118 (src/kspace.cpp:302)
  using 12-bit tables for long-range coulomb (src/kspace.cpp:321)
  G vector (1/distance) = 0.0882432
  grid = 3 3 3
  stencil order = 5
  estimated absolute RMS force accuracy = 0.0247178
  estimated relative force accuracy = 7.44369e-05
  using double precision FFTs
  3d grid and FFT values/proc = 512 27
Neighbor list info ...
  update every 1 steps, delay 0 steps, check yes
  max neighbors/atom: 2000, page size: 100000
  master list distance cutoff = 14
  ghost atom cutoff = 14
  binsize = 7, bins = 6 6 6
  1 neighbor lists, perpetual/occasional/extra = 1 0 0
  (1) pair lj/cut/coul/long, perpetual
      attributes: half, newton on
      pair build: half/bin/newton
      stencil: half/bin/3d/newton
      bin: standard
Per MPI rank memory allocation (min/avg/max) = 16.64 | 16.64 | 16.64 Mbytes
Step Temp E_pair E_mol TotEng Press 
       0            0    394.44838     68.95142     463.3998    1374.3733 
      31    17.959201    286.63172    68.507322    364.61437    791.70369 
Loop time of 0.0449725 on 4 procs for 31 steps with 178 atoms

141.4% CPU use with 1 MPI tasks x 4 OpenMP threads

Minimization stats:
  Stopping criterion = energy tolerance
  Energy initial, next-to-last, final = 
         463.399802802      355.468599959      355.139039035
  Force two-norm initial, final = 375.531 57.852
  Force max component initial, final = 103.253 12.8158
  Final line search alpha, max atom move = 0 0
  Iterations, force evaluations = 31 31

MPI task timing breakdown:
Section |  min time  |  avg time  |  max time  |%varavg| %total
---------------------------------------------------------------
Pair    | 0.036464   | 0.036464   | 0.036464   |   0.0 | 81.08
Bond    | 0.0032649  | 0.0032649  | 0.0032649  |   0.0 |  7.26
Kspace  | 0.0046356  | 0.0046356  | 0.0046356  |   0.0 | 10.31
Neigh   | 0          | 0          | 0          |   0.0 |  0.00
Comm    | 0.00028469 | 0.00028469 | 0.00028469 |   0.0 |  0.63
Output  | 0          | 0          | 0          |   0.0 |  0.00
Modify  | 0          | 0          | 0          |   0.0 |  0.00
Other   |            | 0.0003234  |            |       |  0.72

Nlocal:    178 ave 178 max 178 min
Histogram: 1 0 0 0 0 0 0 0 0 0
Nghost:    1104 ave 1104 max 1104 min
Histogram: 1 0 0 0 0 0 0 0 0 0
Neighs:    10523 ave 10523 max 10523 min
Histogram: 1 0 0 0 0 0 0 0 0 0

Total # of neighbors = 10523
Ave neighs/atom = 59.118
Ave special neighs/atom = 5.82022
Neighbor list builds = 0
Dangerous builds = 0
write_dump all custom pysimm.dump.tmp id q x y z vx vy vz
quit


################################################################################
##################################    Init    ##################################
################################################################################
units           real
atom_style      full
pair_style      lj/cut/coul/long 12.0  12.0
kspace_style    pppm 1e-4
bond_style      harmonic
angle_style     harmonic
dihedral_style  harmonic
improper_style  umbrella
special_bonds   dreiding
pair_modify     mix arithmetic
read_data       temp.lmps
  orthogonal box = (-19.4414 -19.4414 -19.4414) to (19.4414 19.4414 19.4414)
  1 by 1 by 1 MPI processor grid
  reading atoms ...
  194 atoms
  reading velocities ...
  194 velocities
  scanning bonds ...
  3 = max bonds/atom
  scanning angles ...
  6 = max angles/atom
  scanning dihedrals ...
  15 = max dihedrals/atom
  scanning impropers ...
  2 = max impropers/atom
  reading bonds ...
  205 bonds
  reading angles ...
  360 angles
  reading dihedrals ...
  567 dihedrals
  reading impropers ...
  72 impropers
  4 = max # of 1-2 neighbors
  8 = max # of 1-3 neighbors
  12 = max # of special neighbors
################################################################################

min_style fire
minimize 0.001 0.001 10000 100000
WARNING: Using 'neigh_modify every 1 delay 0 check yes' setting during minimization (src/min.cpp:168)
PPPM initialization ...
WARNING: System is not charge neutral, net charge = -0.738298 (src/kspace.cpp:302)
  using 12-bit tables for long-range coulomb (src/kspace.cpp:321)
  G vector (1/distance) = 0.0882468
  grid = 3 3 3
  stencil order = 5
  estimated absolute RMS force accuracy = 0.0258271
  estimated relative force accuracy = 7.77774e-05
  using double precision FFTs
  3d grid and FFT values/proc = 512 27
Neighbor list info ...
  update every 1 steps, delay 0 steps, check yes
  max neighbors/atom: 2000, page size: 100000
  master list distance cutoff = 14
  ghost atom cutoff = 14
  binsize = 7, bins = 6 6 6
  1 neighbor lists, perpetual/occasional/extra = 1 0 0
  (1) pair lj/cut/coul/long, perpetual
      attributes: half, newton on
      pair build: half/bin/newton
      stencil: half/bin/3d/newton
      bin: standard
Per MPI rank memory allocation (min/avg/max) = 16.65 | 16.65 | 16.65 Mbytes
Step Temp E_pair E_mol TotEng Press 
       0            0      431.761    75.604311    507.36531     1505.415 
      38    1.4554918    319.86058    73.387594    394.08551    895.83904 
Loop time of 0.116882 on 4 procs for 38 steps with 194 atoms

60.3% CPU use with 1 MPI tasks x 4 OpenMP threads

Minimization stats:
  Stopping criterion = energy tolerance
  Energy initial, next-to-last, final = 
          507.36530697      393.388898942      393.248174292
  Force two-norm initial, final = 357.694 50.7811
  Force max component initial, final = 97.2552 15.9275
  Final line search alpha, max atom move = 0 0
  Iterations, force evaluations = 38 38

MPI task timing breakdown:
Section |  min time  |  avg time  |  max time  |%varavg| %total
---------------------------------------------------------------
Pair    | 0.09165    | 0.09165    | 0.09165    |   0.0 | 78.41
Bond    | 0.0045656  | 0.0045656  | 0.0045656  |   0.0 |  3.91
Kspace  | 0.01973    | 0.01973    | 0.01973    |   0.0 | 16.88
Neigh   | 0          | 0          | 0          |   0.0 |  0.00
Comm    | 0.00047464 | 0.00047464 | 0.00047464 |   0.0 |  0.41
Output  | 0          | 0          | 0          |   0.0 |  0.00
Modify  | 0          | 0          | 0          |   0.0 |  0.00
Other   |            | 0.0004624  |            |       |  0.40

Nlocal:    194 ave 194 max 194 min
Histogram: 1 0 0 0 0 0 0 0 0 0
Nghost:    1216 ave 1216 max 1216 min
Histogram: 1 0 0 0 0 0 0 0 0 0
Neighs:    11734 ave 11734 max 11734 min
Histogram: 1 0 0 0 0 0 0 0 0 0

Total # of neighbors = 11734
Ave neighs/atom = 60.4845
Ave special neighs/atom = 5.82474
Neighbor list builds = 0
Dangerous builds = 0
write_dump all custom pysimm.dump.tmp id q x y z vx vy vz
quit


################################################################################
##################################    Init    ##################################
################################################################################
units           real
atom_style      full
pair_style      lj/cut/coul/long 12.0  12.0
kspace_style    pppm 1e-4
bond_style      harmonic
angle_style     harmonic
dihedral_style  harmonic
improper_style  umbrella
special_bonds   dreiding
pair_modify     mix arithmetic
read_data       temp.lmps
  orthogonal box = (-19.4414 -19.4414 -19.4414) to (19.4414 19.4414 19.4414)
  1 by 1 by 1 MPI processor grid
  reading atoms ...
  210 atoms
  reading velocities ...
  210 velocities
  scanning bonds ...
  3 = max bonds/atom
  scanning angles ...
  6 = max angles/atom
  scanning dihedrals ...
  15 = max dihedrals/atom
  scanning impropers ...
  2 = max impropers/atom
  reading bonds ...
  222 bonds
  reading angles ...
  390 angles
  reading dihedrals ...
  615 dihedrals
  reading impropers ...
  78 impropers
  4 = max # of 1-2 neighbors
  8 = max # of 1-3 neighbors
  12 = max # of special neighbors
################################################################################

min_style fire
minimize 0.001 0.001 10000 100000
WARNING: Using 'neigh_modify every 1 delay 0 check yes' setting during minimization (src/min.cpp:168)
PPPM initialization ...
WARNING: System is not charge neutral, net charge = -0.805416 (src/kspace.cpp:302)
  using 12-bit tables for long-range coulomb (src/kspace.cpp:321)
  G vector (1/distance) = 0.0882444
  grid = 3 3 3
  stencil order = 5
  estimated absolute RMS force accuracy = 0.026885
  estimated relative force accuracy = 8.09633e-05
  using double precision FFTs
  3d grid and FFT values/proc = 512 27
Neighbor list info ...
  update every 1 steps, delay 0 steps, check yes
  max neighbors/atom: 2000, page size: 100000
  master list distance cutoff = 14
  ghost atom cutoff = 14
  binsize = 7, bins = 6 6 6
  1 neighbor lists, perpetual/occasional/extra = 1 0 0
  (1) pair lj/cut/coul/long, perpetual
      attributes: half, newton on
      pair build: half/bin/newton
      stencil: half/bin/3d/newton
      bin: standard
Per MPI rank memory allocation (min/avg/max) = 16.65 | 16.65 | 16.65 Mbytes
Step Temp E_pair E_mol TotEng Press 
       0            0    447.80155    78.956775    526.75832    1527.6964 
      32    12.800503    348.16696    80.534608    436.67615    979.65739 
Loop time of 0.116429 on 4 procs for 32 steps with 210 atoms

65.1% CPU use with 1 MPI tasks x 4 OpenMP threads

Minimization stats:
  Stopping criterion = energy tolerance
  Energy initial, next-to-last, final = 
         526.758321215      428.626847564      428.701568849
  Force two-norm initial, final = 318.01 68.8155
  Force max component initial, final = 85.0448 14.5212
  Final line search alpha, max atom move = 0 0
  Iterations, force evaluations = 32 32

MPI task timing breakdown:
Section |  min time  |  avg time  |  max time  |%varavg| %total
---------------------------------------------------------------
Pair    | 0.071486   | 0.071486   | 0.071486   |   0.0 | 61.40
Bond    | 0.020195   | 0.020195   | 0.020195   |   0.0 | 17.35
Kspace  | 0.023782   | 0.023782   | 0.023782   |   0.0 | 20.43
Neigh   | 0          | 0          | 0          |   0.0 |  0.00
Comm    | 0.00048178 | 0.00048178 | 0.00048178 |   0.0 |  0.41
Output  | 0          | 0          | 0          |   0.0 |  0.00
Modify  | 0          | 0          | 0          |   0.0 |  0.00
Other   |            | 0.0004849  |            |       |  0.42

Nlocal:    210 ave 210 max 210 min
Histogram: 1 0 0 0 0 0 0 0 0 0
Nghost:    1328 ave 1328 max 1328 min
Histogram: 1 0 0 0 0 0 0 0 0 0
Neighs:    12941 ave 12941 max 12941 min
Histogram: 1 0 0 0 0 0 0 0 0 0

Total # of neighbors = 12941
Ave neighs/atom = 61.6238
Ave special neighs/atom = 5.82857
Neighbor list builds = 0
Dangerous builds = 0
write_dump all custom pysimm.dump.tmp id q x y z vx vy vz
quit


################################################################################
##################################    Init    ##################################
################################################################################
units           real
atom_style      full
pair_style      lj/cut/coul/long 12.0  12.0
kspace_style    pppm 1e-4
bond_style      harmonic
angle_style     harmonic
dihedral_style  harmonic
improper_style  umbrella
special_bonds   dreiding
pair_modify     mix arithmetic
read_data       temp.lmps
  orthogonal box = (-19.4414 -19.4414 -19.4414) to (19.4414 19.4414 19.4414)
  1 by 1 by 1 MPI processor grid
  reading atoms ...
  226 atoms
  reading velocities ...
  226 velocities
  scanning bonds ...
  3 = max bonds/atom
  scanning angles ...
  6 = max angles/atom
  scanning dihedrals ...
  15 = max dihedrals/atom
  scanning impropers ...
  2 = max impropers/atom
  reading bonds ...
  239 bonds
  reading angles ...
  420 angles
  reading dihedrals ...
  663 dihedrals
  reading impropers ...
  84 impropers
  4 = max # of 1-2 neighbors
  8 = max # of 1-3 neighbors
  12 = max # of special neighbors
################################################################################

min_style fire
minimize 0.001 0.001 10000 100000
WARNING: Using 'neigh_modify every 1 delay 0 check yes' setting during minimization (src/min.cpp:168)
PPPM initialization ...
WARNING: System is not charge neutral, net charge = -0.872534 (src/kspace.cpp:302)
  using 12-bit tables for long-range coulomb (src/kspace.cpp:321)
  G vector (1/distance) = 0.0882435
  grid = 3 3 3
  stencil order = 5
  estimated absolute RMS force accuracy = 0.0279041
  estimated relative force accuracy = 8.40323e-05
  using double precision FFTs
  3d grid and FFT values/proc = 512 27
Neighbor list info ...
  update every 1 steps, delay 0 steps, check yes
  max neighbors/atom: 2000, page size: 100000
  master list distance cutoff = 14
  ghost atom cutoff = 14
  binsize = 7, bins = 6 6 6
  1 neighbor lists, perpetual/occasional/extra = 1 0 0
  (1) pair lj/cut/coul/long, perpetual
      attributes: half, newton on
      pair build: half/bin/newton
      stencil: half/bin/3d/newton
      bin: standard
Per MPI rank memory allocation (min/avg/max) = 16.66 | 16.66 | 16.66 Mbytes
Step Temp E_pair E_mol TotEng Press 
       0            0    474.73848    86.158213    560.89669    1603.5906 
      30    6.8738459    381.22431    87.233665    473.06814    1072.2099 
Loop time of 0.141267 on 4 procs for 30 steps with 226 atoms

46.2% CPU use with 1 MPI tasks x 4 OpenMP threads

Minimization stats:
  Stopping criterion = energy tolerance
  Energy initial, next-to-last, final = 
         560.896690539      468.877382475      468.457972624
  Force two-norm initial, final = 317.224 45.5806
  Force max component initial, final = 86.6922 16.3392
  Final line search alpha, max atom move = 0 0
  Iterations, force evaluations = 30 30

MPI task timing breakdown:
Section |  min time  |  avg time  |  max time  |%varavg| %total
---------------------------------------------------------------
Pair    | 0.13       | 0.13       | 0.13       |   0.0 | 92.02
Bond    | 0.0045285  | 0.0045285  | 0.0045285  |   0.0 |  3.21
Kspace  | 0.0059033  | 0.0059033  | 0.0059033  |   0.0 |  4.18
Neigh   | 0          | 0          | 0          |   0.0 |  0.00
Comm    | 0.00042044 | 0.00042044 | 0.00042044 |   0.0 |  0.30
Output  | 0          | 0          | 0          |   0.0 |  0.00
Modify  | 0          | 0          | 0          |   0.0 |  0.00
Other   |            | 0.0004192  |            |       |  0.30

Nlocal:    226 ave 226 max 226 min
Histogram: 1 0 0 0 0 0 0 0 0 0
Nghost:    1430 ave 1430 max 1430 min
Histogram: 1 0 0 0 0 0 0 0 0 0
Neighs:    14143 ave 14143 max 14143 min
Histogram: 1 0 0 0 0 0 0 0 0 0

Total # of neighbors = 14143
Ave neighs/atom = 62.5796
Ave special neighs/atom = 5.83186
Neighbor list builds = 0
Dangerous builds = 0
write_dump all custom pysimm.dump.tmp id q x y z vx vy vz
quit


################################################################################
##################################    Init    ##################################
################################################################################
units           real
atom_style      full
pair_style      lj/cut/coul/long 12.0  12.0
kspace_style    pppm 1e-4
bond_style      harmonic
angle_style     harmonic
dihedral_style  harmonic
improper_style  umbrella
special_bonds   dreiding
pair_modify     mix arithmetic
read_data       temp.lmps
  orthogonal box = (-19.4414 -19.4414 -19.4414) to (19.4414 19.4414 19.4414)
  1 by 1 by 1 MPI processor grid
  reading atoms ...
  242 atoms
  reading velocities ...
  242 velocities
  scanning bonds ...
  3 = max bonds/atom
  scanning angles ...
  6 = max angles/atom
  scanning dihedrals ...
  15 = max dihedrals/atom
  scanning impropers ...
  2 = max impropers/atom
  reading bonds ...
  256 bonds
  reading angles ...
  450 angles
  reading dihedrals ...
  711 dihedrals
  reading impropers ...
  90 impropers
  4 = max # of 1-2 neighbors
  8 = max # of 1-3 neighbors
  12 = max # of special neighbors
################################################################################

min_style fire
minimize 0.001 0.001 10000 100000
WARNING: Using 'neigh_modify every 1 delay 0 check yes' setting during minimization (src/min.cpp:168)
PPPM initialization ...
WARNING: System is not charge neutral, net charge = -0.939652 (src/kspace.cpp:302)
  using 12-bit tables for long-range coulomb (src/kspace.cpp:321)
  G vector (1/distance) = 0.0882433
  grid = 3 3 3
  stencil order = 5
  estimated absolute RMS force accuracy = 0.0288878
  estimated relative force accuracy = 8.69948e-05
  using double precision FFTs
  3d grid and FFT values/proc = 512 27
Neighbor list info ...
  update every 1 steps, delay 0 steps, check yes
  max neighbors/atom: 2000, page size: 100000
  master list distance cutoff = 14
  ghost atom cutoff = 14
  binsize = 7, bins = 6 6 6
  1 neighbor lists, perpetual/occasional/extra = 1 0 0
  (1) pair lj/cut/coul/long, perpetual
      attributes: half, newton on
      pair build: half/bin/newton
      stencil: half/bin/3d/newton
      bin: standard
Per MPI rank memory allocation (min/avg/max) = 16.67 | 16.67 | 16.67 Mbytes
Step Temp E_pair E_mol TotEng Press 
       0            0    525.16284      94.3184    619.48124    1782.5091 
      32    6.8108556    414.78555    92.583663    512.26197    1186.8232 
Loop time of 0.131643 on 4 procs for 32 steps with 242 atoms

64.9% CPU use with 1 MPI tasks x 4 OpenMP threads

Minimization stats:
  Stopping criterion = energy tolerance
  Energy initial, next-to-last, final = 
         619.481236954      507.500661787      507.369216139
  Force two-norm initial, final = 353.791 53.3787
  Force max component initial, final = 102.752 16.6759
  Final line search alpha, max atom move = 0 0
  Iterations, force evaluations = 32 32

MPI task timing breakdown:
Section |  min time  |  avg time  |  max time  |%varavg| %total
---------------------------------------------------------------
Pair    | 0.095735   | 0.095735   | 0.095735   |   0.0 | 72.72
Bond    | 0.0050461  | 0.0050461  | 0.0050461  |   0.0 |  3.83
Kspace  | 0.029733   | 0.029733   | 0.029733   |   0.0 | 22.59
Neigh   | 0          | 0          | 0          |   0.0 |  0.00
Comm    | 0.00056072 | 0.00056072 | 0.00056072 |   0.0 |  0.43
Output  | 0          | 0          | 0          |   0.0 |  0.00
Modify  | 0          | 0          | 0          |   0.0 |  0.00
Other   |            | 0.0005679  |            |       |  0.43

Nlocal:    242 ave 242 max 242 min
Histogram: 1 0 0 0 0 0 0 0 0 0
Nghost:    1502 ave 1502 max 1502 min
Histogram: 1 0 0 0 0 0 0 0 0 0
Neighs:    15363 ave 15363 max 15363 min
Histogram: 1 0 0 0 0 0 0 0 0 0

Total # of neighbors = 15363
Ave neighs/atom = 63.4835
Ave special neighs/atom = 5.83471
Neighbor list builds = 0
Dangerous builds = 0
write_dump all custom pysimm.dump.tmp id q x y z vx vy vz
quit


################################################################################
##################################    Init    ##################################
################################################################################
units           real
atom_style      full
pair_style      lj/cut/coul/long 12.0  12.0
kspace_style    pppm 1e-4
bond_style      harmonic
angle_style     harmonic
dihedral_style  harmonic
improper_style  umbrella
special_bonds   dreiding
pair_modify     mix arithmetic
read_data       temp.lmps
  orthogonal box = (-19.4414 -19.4414 -19.4414) to (19.4414 19.4414 19.4414)
  1 by 1 by 1 MPI processor grid
  reading atoms ...
  258 atoms
  reading velocities ...
  258 velocities
  scanning bonds ...
  3 = max bonds/atom
  scanning angles ...
  6 = max angles/atom
  scanning dihedrals ...
  15 = max dihedrals/atom
  scanning impropers ...
  2 = max impropers/atom
  reading bonds ...
  273 bonds
  reading angles ...
  480 angles
  reading dihedrals ...
  759 dihedrals
  reading impropers ...
  96 impropers
  4 = max # of 1-2 neighbors
  8 = max # of 1-3 neighbors
  12 = max # of special neighbors
################################################################################

min_style fire
minimize 0.001 0.001 10000 100000
WARNING: Using 'neigh_modify every 1 delay 0 check yes' setting during minimization (src/min.cpp:168)
PPPM initialization ...
WARNING: System is not charge neutral, net charge = -1.00677 (src/kspace.cpp:302)
  using 12-bit tables for long-range coulomb (src/kspace.cpp:321)
  G vector (1/distance) = 0.0882432
  grid = 3 3 3
  stencil order = 5
  estimated absolute RMS force accuracy = 0.0298393
  estimated relative force accuracy = 8.98602e-05
  using double precision FFTs
  3d grid and FFT values/proc = 512 27
Neighbor list info ...
  update every 1 steps, delay 0 steps, check yes
  max neighbors/atom: 2000, page size: 100000
  master list distance cutoff = 14
  ghost atom cutoff = 14
  binsize = 7, bins = 6 6 6
  1 neighbor lists, perpetual/occasional/extra = 1 0 0
  (1) pair lj/cut/coul/long, perpetual
      attributes: half, newton on
      pair build: half/bin/newton
      stencil: half/bin/3d/newton
      bin: standard
Per MPI rank memory allocation (min/avg/max) = 16.68 | 16.68 | 16.68 Mbytes
Step Temp E_pair E_mol TotEng Press 
       0            0    543.24117    98.456944    641.69811    1821.7996 
      28    24.377439    446.58113    98.932609    564.18852    1300.9831 
Loop time of 0.103436 on 4 procs for 28 steps with 258 atoms

79.2% CPU use with 1 MPI tasks x 4 OpenMP threads

Minimization stats:
  Stopping criterion = energy tolerance
  Energy initial, next-to-last, final = 
         641.698113443      545.727371019      545.513734525
  Force two-norm initial, final = 320.467 67.4274
  Force max component initial, final = 92.8842 17.899
  Final line search alpha, max atom move = 0 0
  Iterations, force evaluations = 28 28

MPI task timing breakdown:
Section |  min time  |  avg time  |  max time  |%varavg| %total
---------------------------------------------------------------
Pair    | 0.061705   | 0.061705   | 0.061705   |   0.0 | 59.65
Bond    | 0.026359   | 0.026359   | 0.026359   |   0.0 | 25.48
Kspace  | 0.0066719  | 0.0066719  | 0.0066719  |   0.0 |  6.45
Neigh   | 0          | 0          | 0          |   0.0 |  0.00
Comm    | 0.008281   | 0.008281   | 0.008281   |   0.0 |  8.01
Output  | 0          | 0          | 0          |   0.0 |  0.00
Modify  | 0          | 0          | 0          |   0.0 |  0.00
Other   |            | 0.0004192  |            |       |  0.41

Nlocal:    258 ave 258 max 258 min
Histogram: 1 0 0 0 0 0 0 0 0 0
Nghost:    1538 ave 1538 max 1538 min
Histogram: 1 0 0 0 0 0 0 0 0 0
Neighs:    16655 ave 16655 max 16655 min
Histogram: 1 0 0 0 0 0 0 0 0 0

Total # of neighbors = 16655
Ave neighs/atom = 64.5543
Ave special neighs/atom = 5.83721
Neighbor list builds = 0
Dangerous builds = 0
write_dump all custom pysimm.dump.tmp id q x y z vx vy vz
quit


################################################################################
##################################    Init    ##################################
################################################################################
units           real
atom_style      full
pair_style      lj/cut/coul/long 12.0  12.0
kspace_style    pppm 1e-4
bond_style      harmonic
angle_style     harmonic
dihedral_style  harmonic
improper_style  umbrella
special_bonds   dreiding
pair_modify     mix arithmetic
read_data       temp.lmps
  orthogonal box = (-19.4414 -19.4414 -19.4414) to (19.4414 19.4414 19.4414)
  1 by 1 by 1 MPI processor grid
  reading atoms ...
  274 atoms
  reading velocities ...
  274 velocities
  scanning bonds ...
  3 = max bonds/atom
  scanning angles ...
  6 = max angles/atom
  scanning dihedrals ...
  15 = max dihedrals/atom
  scanning impropers ...
  2 = max impropers/atom
  reading bonds ...
  290 bonds
  reading angles ...
  510 angles
  reading dihedrals ...
  807 dihedrals
  reading impropers ...
  102 impropers
  4 = max # of 1-2 neighbors
  8 = max # of 1-3 neighbors
  12 = max # of special neighbors
################################################################################

min_style fire
minimize 0.001 0.001 10000 100000
WARNING: Using 'neigh_modify every 1 delay 0 check yes' setting during minimization (src/min.cpp:168)
PPPM initialization ...
WARNING: System is not charge neutral, net charge = -1.07389 (src/kspace.cpp:302)
  using 12-bit tables for long-range coulomb (src/kspace.cpp:321)
  G vector (1/distance) = 0.0882432
  grid = 3 3 3
  stencil order = 5
  estimated absolute RMS force accuracy = 0.0307615
  estimated relative force accuracy = 9.26372e-05
  using double precision FFTs
  3d grid and FFT values/proc = 512 27
Neighbor list info ...
  update every 1 steps, delay 0 steps, check yes
  max neighbors/atom: 2000, page size: 100000
  master list distance cutoff = 14
  ghost atom cutoff = 14
  binsize = 7, bins = 6 6 6
  1 neighbor lists, perpetual/occasional/extra = 1 0 0
  (1) pair lj/cut/coul/long, perpetual
      attributes: half, newton on
      pair build: half/bin/newton
      stencil: half/bin/3d/newton
      bin: standard
Per MPI rank memory allocation (min/avg/max) = 16.68 | 16.68 | 16.68 Mbytes
Step Temp E_pair E_mol TotEng Press 
       0            0    586.48825    104.77942    691.26767    1978.7604 
      18    95.317932    493.18881    110.05949    680.81433    1528.5706 
Loop time of 0.0547254 on 4 procs for 18 steps with 274 atoms

73.2% CPU use with 1 MPI tasks x 4 OpenMP threads

Minimization stats:
  Stopping criterion = energy tolerance
  Energy initial, next-to-last, final = 
         691.267669916      602.740554502      603.248304502
  Force two-norm initial, final = 344.669 142.318
  Force max component initial, final = 98.0685 34.2553
  Final line search alpha, max atom move = 0 0
  Iterations, force evaluations = 18 18

MPI task timing breakdown:
Section |  min time  |  avg time  |  max time  |%varavg| %total
---------------------------------------------------------------
Pair    | 0.043552   | 0.043552   | 0.043552   |   0.0 | 79.58
Bond    | 0.0032198  | 0.0032198  | 0.0032198  |   0.0 |  5.88
Kspace  | 0.0073255  | 0.0073255  | 0.0073255  |   0.0 | 13.39
Neigh   | 0          | 0          | 0          |   0.0 |  0.00
Comm    | 0.00030011 | 0.00030011 | 0.00030011 |   0.0 |  0.55
Output  | 0          | 0          | 0          |   0.0 |  0.00
Modify  | 0          | 0          | 0          |   0.0 |  0.00
Other   |            | 0.0003277  |            |       |  0.60

Nlocal:    274 ave 274 max 274 min
Histogram: 1 0 0 0 0 0 0 0 0 0
Nghost:    1590 ave 1590 max 1590 min
Histogram: 1 0 0 0 0 0 0 0 0 0
Neighs:    18111 ave 18111 max 18111 min
Histogram: 1 0 0 0 0 0 0 0 0 0

Total # of neighbors = 18111
Ave neighs/atom = 66.0985
Ave special neighs/atom = 5.83942
Neighbor list builds = 0
Dangerous builds = 0
write_dump all custom pysimm.dump.tmp id q x y z vx vy vz
quit


################################################################################
##################################    Init    ##################################
################################################################################
units           real
atom_style      full
pair_style      lj/cut/coul/long 12.0  12.0
kspace_style    pppm 1e-4
bond_style      harmonic
angle_style     harmonic
dihedral_style  harmonic
improper_style  umbrella
special_bonds   dreiding
pair_modify     mix arithmetic
read_data       temp.lmps
  orthogonal box = (-19.4414 -19.4414 -19.4414) to (19.4414 19.4414 19.4414)
  1 by 1 by 1 MPI processor grid
  reading atoms ...
  290 atoms
  reading velocities ...
  290 velocities
  scanning bonds ...
  3 = max bonds/atom
  scanning angles ...
  6 = max angles/atom
  scanning dihedrals ...
  15 = max dihedrals/atom
  scanning impropers ...
  2 = max impropers/atom
  reading bonds ...
  307 bonds
  reading angles ...
  540 angles
  reading dihedrals ...
  855 dihedrals
  reading impropers ...
  108 impropers
  4 = max # of 1-2 neighbors
  8 = max # of 1-3 neighbors
  12 = max # of special neighbors
################################################################################

min_style fire
minimize 0.001 0.001 10000 100000
WARNING: Using 'neigh_modify every 1 delay 0 check yes' setting during minimization (src/min.cpp:168)
PPPM initialization ...
WARNING: System is not charge neutral, net charge = -1.14101 (src/kspace.cpp:302)
  using 12-bit tables for long-range coulomb (src/kspace.cpp:321)
  G vector (1/distance) = 0.0882432
  grid = 3 3 3
  stencil order = 5
  estimated absolute RMS force accuracy = 0.0316568
  estimated relative force accuracy = 9.53334e-05
  using double precision FFTs
  3d grid and FFT values/proc = 512 27
Neighbor list info ...
  update every 1 steps, delay 0 steps, check yes
  max neighbors/atom: 2000, page size: 100000
  master list distance cutoff = 14
  ghost atom cutoff = 14
  binsize = 7, bins = 6 6 6
  1 neighbor lists, perpetual/occasional/extra = 1 0 0
  (1) pair lj/cut/coul/long, perpetual
      attributes: half, newton on
      pair build: half/bin/newton
      stencil: half/bin/3d/newton
      bin: standard
Per MPI rank memory allocation (min/avg/max) = 16.69 | 16.69 | 16.69 Mbytes
Step Temp E_pair E_mol TotEng Press 
       0            0     637.6538    119.80311     757.4569    2172.7371 
      21    11.616601    544.67861    113.27541    667.96119    1672.6566 
Loop time of 0.105683 on 4 procs for 21 steps with 290 atoms

62.5% CPU use with 1 MPI tasks x 4 OpenMP threads

Minimization stats:
  Stopping criterion = energy tolerance
  Energy initial, next-to-last, final = 
         757.456903969      658.283997352      657.954023328
  Force two-norm initial, final = 381.287 72.9959
  Force max component initial, final = 112.978 16.9343
  Final line search alpha, max atom move = 0 0
  Iterations, force evaluations = 21 21

MPI task timing breakdown:
Section |  min time  |  avg time  |  max time  |%varavg| %total
---------------------------------------------------------------
Pair    | 0.066136   | 0.066136   | 0.066136   |   0.0 | 62.58
Bond    | 0.0039495  | 0.0039495  | 0.0039495  |   0.0 |  3.74
Kspace  | 0.034886   | 0.034886   | 0.034886   |   0.0 | 33.01
Neigh   | 0          | 0          | 0          |   0.0 |  0.00
Comm    | 0.0003543  | 0.0003543  | 0.0003543  |   0.0 |  0.34
Output  | 0          | 0          | 0          |   0.0 |  0.00
Modify  | 0          | 0          | 0          |   0.0 |  0.00
Other   |            | 0.0003573  |            |       |  0.34

Nlocal:    290 ave 290 max 290 min
Histogram: 1 0 0 0 0 0 0 0 0 0
Nghost:    1638 ave 1638 max 1638 min
Histogram: 1 0 0 0 0 0 0 0 0 0
Neighs:    19695 ave 19695 max 19695 min
Histogram: 1 0 0 0 0 0 0 0 0 0

Total # of neighbors = 19695
Ave neighs/atom = 67.9138
Ave special neighs/atom = 5.84138
Neighbor list builds = 0
Dangerous builds = 0
write_dump all custom pysimm.dump.tmp id q x y z vx vy vz
quit


################################################################################
##################################    Init    ##################################
################################################################################
units           real
atom_style      full
pair_style      lj/cut/coul/long 12.0  12.0
kspace_style    pppm 1e-4
bond_style      harmonic
angle_style     harmonic
dihedral_style  harmonic
improper_style  umbrella
special_bonds   dreiding
pair_modify     mix arithmetic
read_data       temp.lmps
  orthogonal box = (-19.4414 -19.4414 -19.4414) to (19.4414 19.4414 19.4414)
  1 by 1 by 1 MPI processor grid
  reading atoms ...
  306 atoms
  reading velocities ...
  306 velocities
  scanning bonds ...
  3 = max bonds/atom
  scanning angles ...
  6 = max angles/atom
  scanning dihedrals ...
  15 = max dihedrals/atom
  scanning impropers ...
  2 = max impropers/atom
  reading bonds ...
  324 bonds
  reading angles ...
  570 angles
  reading dihedrals ...
  903 dihedrals
  reading impropers ...
  114 impropers
  4 = max # of 1-2 neighbors
  8 = max # of 1-3 neighbors
  12 = max # of special neighbors
################################################################################

min_style fire
minimize 0.001 0.001 10000 100000
WARNING: Using 'neigh_modify every 1 delay 0 check yes' setting during minimization (src/min.cpp:168)
PPPM initialization ...
WARNING: System is not charge neutral, net charge = -1.20812 (src/kspace.cpp:302)
  using 12-bit tables for long-range coulomb (src/kspace.cpp:321)
  G vector (1/distance) = 0.0882448
  grid = 3 3 3
  stencil order = 5
  estimated absolute RMS force accuracy = 0.0325296
  estimated relative force accuracy = 9.79618e-05
  using double precision FFTs
  3d grid and FFT values/proc = 512 27
Neighbor list info ...
  update every 1 steps, delay 0 steps, check yes
  max neighbors/atom: 2000, page size: 100000
  master list distance cutoff = 14
  ghost atom cutoff = 14
  binsize = 7, bins = 6 6 6
  1 neighbor lists, perpetual/occasional/extra = 1 0 0
  (1) pair lj/cut/coul/long, perpetual
      attributes: half, newton on
      pair build: half/bin/newton
      stencil: half/bin/3d/newton
      bin: standard
Per MPI rank memory allocation (min/avg/max) = 16.7 | 16.7 | 16.7 Mbytes
Step Temp E_pair E_mol TotEng Press 
       0            0    709.49273    122.65587     832.1486    2462.3562 
      31    3.8823931    581.01959    115.50757    700.05682    1823.0723 
Loop time of 0.156757 on 4 procs for 31 steps with 306 atoms

59.4% CPU use with 1 MPI tasks x 4 OpenMP threads

Minimization stats:
  Stopping criterion = energy tolerance
  Energy initial, next-to-last, final = 
         832.148601269      697.083158827      696.527154181
  Force two-norm initial, final = 391.957 58.8184
  Force max component initial, final = 116.94 17.6621
  Final line search alpha, max atom move = 0 0
  Iterations, force evaluations = 31 31

MPI task timing breakdown:
Section |  min time  |  avg time  |  max time  |%varavg| %total
---------------------------------------------------------------
Pair    | 0.11804    | 0.11804    | 0.11804    |   0.0 | 75.30
Bond    | 0.0058691  | 0.0058691  | 0.0058691  |   0.0 |  3.74
Kspace  | 0.020548   | 0.020548   | 0.020548   |   0.0 | 13.11
Neigh   | 0          | 0          | 0          |   0.0 |  0.00
Comm    | 0.011685   | 0.011685   | 0.011685   |   0.0 |  7.45
Output  | 0          | 0          | 0          |   0.0 |  0.00
Modify  | 0          | 0          | 0          |   0.0 |  0.00
Other   |            | 0.0006182  |            |       |  0.39

Nlocal:    306 ave 306 max 306 min
Histogram: 1 0 0 0 0 0 0 0 0 0
Nghost:    1714 ave 1714 max 1714 min
Histogram: 1 0 0 0 0 0 0 0 0 0
Neighs:    21435 ave 21435 max 21435 min
Histogram: 1 0 0 0 0 0 0 0 0 0

Total # of neighbors = 21435
Ave neighs/atom = 70.049
Ave special neighs/atom = 5.84314
Neighbor list builds = 0
Dangerous builds = 0
write_dump all custom pysimm.dump.tmp id q x y z vx vy vz
quit


################################################################################
##################################    Init    ##################################
################################################################################
units           real
atom_style      full
pair_style      lj/cut/coul/long 12.0  12.0
kspace_style    pppm 1e-4
bond_style      harmonic
angle_style     harmonic
dihedral_style  harmonic
improper_style  umbrella
special_bonds   dreiding
pair_modify     mix arithmetic
read_data       temp.lmps
  orthogonal box = (-19.4414 -19.4414 -19.4414) to (19.4414 19.4414 19.4414)
  1 by 1 by 1 MPI processor grid
  reading atoms ...
  322 atoms
  reading velocities ...
  322 velocities
  scanning bonds ...
  3 = max bonds/atom
  scanning angles ...
  6 = max angles/atom
  scanning dihedrals ...
  15 = max dihedrals/atom
  scanning impropers ...
  2 = max impropers/atom
  reading bonds ...
  341 bonds
  reading angles ...
  600 angles
  reading dihedrals ...
  951 dihedrals
  reading impropers ...
  120 impropers
  4 = max # of 1-2 neighbors
  8 = max # of 1-3 neighbors
  12 = max # of special neighbors
################################################################################

min_style fire
minimize 0.001 0.001 10000 100000
WARNING: Using 'neigh_modify every 1 delay 0 check yes' setting during minimization (src/min.cpp:168)
PPPM initialization ...
WARNING: System is not charge neutral, net charge = -1.27524 (src/kspace.cpp:302)
  using 12-bit tables for long-range coulomb (src/kspace.cpp:321)
  G vector (1/distance) = 0.0882438
  grid = 3 3 3
  stencil order = 5
  estimated absolute RMS force accuracy = 0.0333762
  estimated relative force accuracy = 0.000100511
  using double precision FFTs
  3d grid and FFT values/proc = 512 27
Neighbor list info ...
  update every 1 steps, delay 0 steps, check yes
  max neighbors/atom: 2000, page size: 100000
  master list distance cutoff = 14
  ghost atom cutoff = 14
  binsize = 7, bins = 6 6 6
  1 neighbor lists, perpetual/occasional/extra = 1 0 0
  (1) pair lj/cut/coul/long, perpetual
      attributes: half, newton on
      pair build: half/bin/newton
      stencil: half/bin/3d/newton
      bin: standard
Per MPI rank memory allocation (min/avg/max) = 16.71 | 16.71 | 16.71 Mbytes
Step Temp E_pair E_mol TotEng Press 
       0            0    705.70005    121.58853    827.28858    2438.1148 
      22    63.814279    606.36656    127.86478     795.2914    1903.5172 
Loop time of 0.116785 on 4 procs for 22 steps with 322 atoms

68.6% CPU use with 1 MPI tasks x 4 OpenMP threads

Minimization stats:
  Stopping criterion = energy tolerance
  Energy initial, next-to-last, final = 
         827.288580759      733.678808602      734.231345104
  Force two-norm initial, final = 308.926 114.057
  Force max component initial, final = 95.3771 27.9968
  Final line search alpha, max atom move = 0 0
  Iterations, force evaluations = 22 22

MPI task timing breakdown:
Section |  min time  |  avg time  |  max time  |%varavg| %total
---------------------------------------------------------------
Pair    | 0.081739   | 0.081739   | 0.081739   |   0.0 | 69.99
Bond    | 0.0041916  | 0.0041916  | 0.0041916  |   0.0 |  3.59
Kspace  | 0.0057713  | 0.0057713  | 0.0057713  |   0.0 |  4.94
Neigh   | 0          | 0          | 0          |   0.0 |  0.00
Comm    | 0.024684   | 0.024684   | 0.024684   |   0.0 | 21.14
Output  | 0          | 0          | 0          |   0.0 |  0.00
Modify  | 0          | 0          | 0          |   0.0 |  0.00
Other   |            | 0.0003993  |            |       |  0.34

Nlocal:    322 ave 322 max 322 min
Histogram: 1 0 0 0 0 0 0 0 0 0
Nghost:    1824 ave 1824 max 1824 min
Histogram: 1 0 0 0 0 0 0 0 0 0
Neighs:    23161 ave 23161 max 23161 min
Histogram: 1 0 0 0 0 0 0 0 0 0

Total # of neighbors = 23161
Ave neighs/atom = 71.9286
Ave special neighs/atom = 5.84472
Neighbor list builds = 0
Dangerous builds = 0
write_dump all custom pysimm.dump.tmp id q x y z vx vy vz
quit


################################################################################
##################################    Init    ##################################
################################################################################
units           real
atom_style      full
pair_style      lj/cut/coul/long 12.0  12.0
kspace_style    pppm 1e-4
bond_style      harmonic
angle_style     harmonic
dihedral_style  harmonic
improper_style  umbrella
special_bonds   dreiding
pair_modify     mix arithmetic
read_data       temp.lmps
  orthogonal box = (-19.4414 -19.4414 -19.4414) to (19.4414 19.4414 19.4414)
  1 by 1 by 1 MPI processor grid
  reading atoms ...
  338 atoms
  reading velocities ...
  338 velocities
  scanning bonds ...
  3 = max bonds/atom
  scanning angles ...
  6 = max angles/atom
  scanning dihedrals ...
  15 = max dihedrals/atom
  scanning impropers ...
  2 = max impropers/atom
  reading bonds ...
  358 bonds
  reading angles ...
  630 angles
  reading dihedrals ...
  999 dihedrals
  reading impropers ...
  126 impropers
  4 = max # of 1-2 neighbors
  8 = max # of 1-3 neighbors
  12 = max # of special neighbors
################################################################################

min_style fire
minimize 0.001 0.001 10000 100000
WARNING: Using 'neigh_modify every 1 delay 0 check yes' setting during minimization (src/min.cpp:168)
PPPM initialization ...
WARNING: System is not charge neutral, net charge = -1.34236 (src/kspace.cpp:302)
  using 12-bit tables for long-range coulomb (src/kspace.cpp:321)
  G vector (1/distance) = 0.0882434
  grid = 3 3 3
  stencil order = 5
  estimated absolute RMS force accuracy = 0.0342027
  estimated relative force accuracy = 0.000103
  using double precision FFTs
  3d grid and FFT values/proc = 512 27
Neighbor list info ...
  update every 1 steps, delay 0 steps, check yes
  max neighbors/atom: 2000, page size: 100000
  master list distance cutoff = 14
  ghost atom cutoff = 14
  binsize = 7, bins = 6 6 6
  1 neighbor lists, perpetual/occasional/extra = 1 0 0
  (1) pair lj/cut/coul/long, perpetual
      attributes: half, newton on
      pair build: half/bin/newton
      stencil: half/bin/3d/newton
      bin: standard
Per MPI rank memory allocation (min/avg/max) = 16.72 | 16.72 | 16.72 Mbytes
Step Temp E_pair E_mol TotEng Press 
       0            0    740.47963    134.33772    874.81735    2544.0691 
      31    12.707881    633.94164    131.27146    777.97859    1927.8138 
Loop time of 0.184183 on 4 procs for 31 steps with 338 atoms

62.7% CPU use with 1 MPI tasks x 4 OpenMP threads

Minimization stats:
  Stopping criterion = energy tolerance
  Energy initial, next-to-last, final = 
         874.817354321      765.533856097      765.213101918
  Force two-norm initial, final = 360.186 68.5306
  Force max component initial, final = 104.027 19.0171
  Final line search alpha, max atom move = 0 0
  Iterations, force evaluations = 31 31

MPI task timing breakdown:
Section |  min time  |  avg time  |  max time  |%varavg| %total
---------------------------------------------------------------
Pair    | 0.11298    | 0.11298    | 0.11298    |   0.0 | 61.34
Bond    | 0.038742   | 0.038742   | 0.038742   |   0.0 | 21.03
Kspace  | 0.0091594  | 0.0091594  | 0.0091594  |   0.0 |  4.97
Neigh   | 0          | 0          | 0          |   0.0 |  0.00
Comm    | 0.022654   | 0.022654   | 0.022654   |   0.0 | 12.30
Output  | 0          | 0          | 0          |   0.0 |  0.00
Modify  | 0          | 0          | 0          |   0.0 |  0.00
Other   |            | 0.0006455  |            |       |  0.35

Nlocal:    338 ave 338 max 338 min
Histogram: 1 0 0 0 0 0 0 0 0 0
Nghost:    1924 ave 1924 max 1924 min
Histogram: 1 0 0 0 0 0 0 0 0 0
Neighs:    24926 ave 24926 max 24926 min
Histogram: 1 0 0 0 0 0 0 0 0 0

Total # of neighbors = 24926
[...]
################################################################################
units           real
atom_style      full
pair_style      lj/cut/coul/long 12.0  12.0
kspace_style    pppm 1e-4
bond_style      harmonic
angle_style     harmonic
dihedral_style  harmonic
improper_style  umbrella
special_bonds   dreiding
pair_modify     mix arithmetic
read_data       temp.lmps
  orthogonal box = (-19.4414 -19.4414 -19.4414) to (19.4414 19.4414 19.4414)
  1 by 1 by 1 MPI processor grid
  reading atoms ...
  1538 atoms
  reading velocities ...
  1538 velocities
  scanning bonds ...
  3 = max bonds/atom
  scanning angles ...
  6 = max angles/atom
  scanning dihedrals ...
  15 = max dihedrals/atom
  scanning impropers ...
  2 = max impropers/atom
  reading bonds ...
  1633 bonds
  reading angles ...
  2880 angles
  reading dihedrals ...
  4599 dihedrals
  reading impropers ...
  576 impropers
  4 = max # of 1-2 neighbors
  8 = max # of 1-3 neighbors
  12 = max # of special neighbors
################################################################################

min_style fire
minimize 0.001 0.001 10000 100000
WARNING: Using 'neigh_modify every 1 delay 0 check yes' setting during minimization (src/min.cpp:168)
PPPM initialization ...
WARNING: System is not charge neutral, net charge = -6.37621 (src/kspace.cpp:302)
  using 12-bit tables for long-range coulomb (src/kspace.cpp:321)
  G vector (1/distance) = 0.125618
  grid = 5 5 5
  stencil order = 5
  estimated absolute RMS force accuracy = 0.0231618
  estimated relative force accuracy = 6.9751e-05
  using double precision FFTs
  3d grid and FFT values/proc = 1000 125
Neighbor list info ...
  update every 1 steps, delay 0 steps, check yes
  max neighbors/atom: 2000, page size: 100000
  master list distance cutoff = 14
  ghost atom cutoff = 14
  binsize = 7, bins = 6 6 6
  1 neighbor lists, perpetual/occasional/extra = 1 0 0
  (1) pair lj/cut/coul/long, perpetual
      attributes: half, newton on
      pair build: half/bin/newton
      stencil: half/bin/3d/newton
      bin: standard
Per MPI rank memory allocation (min/avg/max) = 18.02 | 18.02 | 18.02 Mbytes
Step Temp E_pair E_mol TotEng Press 
       0            0    5089.2156    696.89081    5786.1064    22047.641 
      13    103.00159    4868.1199    616.85881     5956.881    21421.148 
Loop time of 0.263645 on 4 procs for 13 steps with 1538 atoms

97.8% CPU use with 1 MPI tasks x 4 OpenMP threads

Minimization stats:
  Stopping criterion = energy tolerance
  Energy initial, next-to-last, final = 
         5786.10642064      5483.92560137      5484.97874663
  Force two-norm initial, final = 800.093 362.437
  Force max component initial, final = 226.122 96.8447
  Final line search alpha, max atom move = 0 0
  Iterations, force evaluations = 13 13

MPI task timing breakdown:
Section |  min time  |  avg time  |  max time  |%varavg| %total
---------------------------------------------------------------
Pair    | 0.2298     | 0.2298     | 0.2298     |   0.0 | 87.16
Bond    | 0.014383   | 0.014383   | 0.014383   |   0.0 |  5.46
Kspace  | 0.017545   | 0.017545   | 0.017545   |   0.0 |  6.65
Neigh   | 0          | 0          | 0          |   0.0 |  0.00
Comm    | 0.00094685 | 0.00094685 | 0.00094685 |   0.0 |  0.36
Output  | 0          | 0          | 0          |   0.0 |  0.00
Modify  | 0          | 0          | 0          |   0.0 |  0.00
Other   |            | 0.0009726  |            |       |  0.37

Nlocal:    1538 ave 1538 max 1538 min
Histogram: 1 0 0 0 0 0 0 0 0 0
Nghost:    6649 ave 6649 max 6649 min
Histogram: 1 0 0 0 0 0 0 0 0 0
Neighs:    293099 ave 293099 max 293099 min
Histogram: 1 0 0 0 0 0 0 0 0 0

Total # of neighbors = 293099
Ave neighs/atom = 190.572
Ave special neighs/atom = 5.86866
Neighbor list builds = 0
Dangerous builds = 0
write_dump all custom pysimm.dump.tmp id q x y z vx vy vz
quit


################################################################################
##################################    Init    ##################################
################################################################################
units           real
atom_style      full
pair_style      lj/cut/coul/long 12.0  12.0
kspace_style    pppm 1e-4
bond_style      harmonic
angle_style     harmonic
dihedral_style  harmonic
improper_style  umbrella
special_bonds   dreiding
pair_modify     mix arithmetic
read_data       temp.lmps
  orthogonal box = (-19.4414 -19.4414 -19.4414) to (19.4414 19.4414 19.4414)
  1 by 1 by 1 MPI processor grid
  reading atoms ...
  1554 atoms
  reading velocities ...
  1554 velocities
  scanning bonds ...
  3 = max bonds/atom
  scanning angles ...
  6 = max angles/atom
  scanning dihedrals ...
  15 = max dihedrals/atom
  scanning impropers ...
  2 = max impropers/atom
  reading bonds ...
  1650 bonds
  reading angles ...
  2910 angles
  reading dihedrals ...
  4647 dihedrals
  reading impropers ...
  582 impropers
  4 = max # of 1-2 neighbors
  8 = max # of 1-3 neighbors
  12 = max # of special neighbors
################################################################################

min_style fire
minimize 0.001 0.001 10000 100000
WARNING: Using 'neigh_modify every 1 delay 0 check yes' setting during minimization (src/min.cpp:168)
PPPM initialization ...
WARNING: System is not charge neutral, net charge = -6.44333 (src/kspace.cpp:302)
  using 12-bit tables for long-range coulomb (src/kspace.cpp:321)
  G vector (1/distance) = 0.125618
  grid = 5 5 5
  stencil order = 5
  estimated absolute RMS force accuracy = 0.0232822
  estimated relative force accuracy = 7.01136e-05
  using double precision FFTs
  3d grid and FFT values/proc = 1000 125
Neighbor list info ...
  update every 1 steps, delay 0 steps, check yes
  max neighbors/atom: 2000, page size: 100000
  master list distance cutoff = 14
  ghost atom cutoff = 14
  binsize = 7, bins = 6 6 6
  1 neighbor lists, perpetual/occasional/extra = 1 0 0
  (1) pair lj/cut/coul/long, perpetual
      attributes: half, newton on
      pair build: half/bin/newton
      stencil: half/bin/3d/newton
      bin: standard
Per MPI rank memory allocation (min/avg/max) = 18.41 | 18.41 | 18.41 Mbytes
Step Temp E_pair E_mol TotEng Press 
       0            0    5137.9087      633.368    5771.2766    22356.315 
      13    81.422251    4905.8644    603.90948    5886.6936     21496.45 
Loop time of 0.324145 on 4 procs for 13 steps with 1554 atoms

80.5% CPU use with 1 MPI tasks x 4 OpenMP threads

Minimization stats:
  Stopping criterion = energy tolerance
  Energy initial, next-to-last, final = 
         5771.27664805      5511.24812058      5509.77389375
  Force two-norm initial, final = 787.949 291.81
  Force max component initial, final = 265.293 92.8679
  Final line search alpha, max atom move = 0 0
  Iterations, force evaluations = 13 13

MPI task timing breakdown:
Section |  min time  |  avg time  |  max time  |%varavg| %total
---------------------------------------------------------------
Pair    | 0.2888     | 0.2888     | 0.2888     |   0.0 | 89.10
Bond    | 0.015274   | 0.015274   | 0.015274   |   0.0 |  4.71
Kspace  | 0.018052   | 0.018052   | 0.018052   |   0.0 |  5.57
Neigh   | 0          | 0          | 0          |   0.0 |  0.00
Comm    | 0.0010338  | 0.0010338  | 0.0010338  |   0.0 |  0.32
Output  | 0          | 0          | 0          |   0.0 |  0.00
Modify  | 0          | 0          | 0          |   0.0 |  0.00
Other   |            | 0.0009845  |            |       |  0.30

Nlocal:    1554 ave 1554 max 1554 min
Histogram: 1 0 0 0 0 0 0 0 0 0
Nghost:    6759 ave 6759 max 6759 min
Histogram: 1 0 0 0 0 0 0 0 0 0
Neighs:    297488 ave 297488 max 297488 min
Histogram: 1 0 0 0 0 0 0 0 0 0

Total # of neighbors = 297488
Ave neighs/atom = 191.434
Ave special neighs/atom = 5.86873
Neighbor list builds = 0
Dangerous builds = 0
write_dump all custom pysimm.dump.tmp id q x y z vx vy vz
quit


################################################################################
##################################    Init    ##################################
################################################################################
units           real
atom_style      full
pair_style      lj/cut/coul/long 12.0  12.0
kspace_style    pppm 1e-4
bond_style      harmonic
angle_style     harmonic
dihedral_style  harmonic
improper_style  umbrella
special_bonds   dreiding
pair_modify     mix arithmetic
read_data       temp.lmps
  orthogonal box = (-19.4414 -19.4414 -19.4414) to (19.4414 19.4414 19.4414)
  1 by 1 by 1 MPI processor grid
  reading atoms ...
  1570 atoms
  reading velocities ...
  1570 velocities
  scanning bonds ...
  3 = max bonds/atom
  scanning angles ...
  6 = max angles/atom
  scanning dihedrals ...
  15 = max dihedrals/atom
  scanning impropers ...
  2 = max impropers/atom
  reading bonds ...
  1667 bonds
  reading angles ...
  2940 angles
  reading dihedrals ...
  4695 dihedrals
  reading impropers ...
  588 impropers
  4 = max # of 1-2 neighbors
  8 = max # of 1-3 neighbors
  12 = max # of special neighbors
################################################################################

min_style fire
minimize 0.001 0.001 10000 100000
WARNING: Using 'neigh_modify every 1 delay 0 check yes' setting during minimization (src/min.cpp:168)
PPPM initialization ...
WARNING: System is not charge neutral, net charge = -6.51045 (src/kspace.cpp:302)
  using 12-bit tables for long-range coulomb (src/kspace.cpp:321)
  G vector (1/distance) = 0.125618
  grid = 5 5 5
  stencil order = 5
  estimated absolute RMS force accuracy = 0.023402
  estimated relative force accuracy = 7.04744e-05
  using double precision FFTs
  3d grid and FFT values/proc = 1000 125
Neighbor list info ...
  update every 1 steps, delay 0 steps, check yes
  max neighbors/atom: 2000, page size: 100000
  master list distance cutoff = 14
  ghost atom cutoff = 14
  binsize = 7, bins = 6 6 6
  1 neighbor lists, perpetual/occasional/extra = 1 0 0
  (1) pair lj/cut/coul/long, perpetual
      attributes: half, newton on
      pair build: half/bin/newton
      stencil: half/bin/3d/newton
      bin: standard
Per MPI rank memory allocation (min/avg/max) = 18.42 | 18.42 | 18.42 Mbytes
Step Temp E_pair E_mol TotEng Press 
       0            0    5163.2222    620.37744    5783.5996    22453.463 
      13    68.654767    4954.3103    603.65249    5879.0537    21629.979 
Loop time of 0.292525 on 4 procs for 13 steps with 1570 atoms

90.2% CPU use with 1 MPI tasks x 4 OpenMP threads

Minimization stats:
  Stopping criterion = energy tolerance
  Energy initial, next-to-last, final = 
         5783.59963829      5562.09935845      5557.96279226
  Force two-norm initial, final = 716.508 252.917
  Force max component initial, final = 249.223 74.7094
  Final line search alpha, max atom move = 0 0
  Iterations, force evaluations = 13 13

MPI task timing breakdown:
Section |  min time  |  avg time  |  max time  |%varavg| %total
---------------------------------------------------------------
Pair    | 0.25756    | 0.25756    | 0.25756    |   0.0 | 88.05
Bond    | 0.014516   | 0.014516   | 0.014516   |   0.0 |  4.96
Kspace  | 0.018015   | 0.018015   | 0.018015   |   0.0 |  6.16
Neigh   | 0          | 0          | 0          |   0.0 |  0.00
Comm    | 0.00091463 | 0.00091463 | 0.00091463 |   0.0 |  0.31
Output  | 0          | 0          | 0          |   0.0 |  0.00
Modify  | 0          | 0          | 0          |   0.0 |  0.00
Other   |            | 0.001523   |            |       |  0.52

Nlocal:    1570 ave 1570 max 1570 min
Histogram: 1 0 0 0 0 0 0 0 0 0
Nghost:    6867 ave 6867 max 6867 min
Histogram: 1 0 0 0 0 0 0 0 0 0
Neighs:    302011 ave 302011 max 302011 min
Histogram: 1 0 0 0 0 0 0 0 0 0

Total # of neighbors = 302011
Ave neighs/atom = 192.364
Ave special neighs/atom = 5.86879
Neighbor list builds = 0
Dangerous builds = 0
write_dump all custom pysimm.dump.tmp id q x y z vx vy vz
quit


################################################################################
##################################    Init    ##################################
################################################################################
units           real
atom_style      full
pair_style      lj/cut/coul/long 12.0  12.0
kspace_style    pppm 1e-4
bond_style      harmonic
angle_style     harmonic
dihedral_style  harmonic
improper_style  umbrella
special_bonds   dreiding
pair_modify     mix arithmetic
read_data       temp.lmps
  orthogonal box = (-19.4414 -19.4414 -19.4414) to (19.4414 19.4414 19.4414)
  1 by 1 by 1 MPI processor grid
  reading atoms ...
  1586 atoms
  reading velocities ...
  1586 velocities
  scanning bonds ...
  3 = max bonds/atom
  scanning angles ...
  6 = max angles/atom
  scanning dihedrals ...
  15 = max dihedrals/atom
  scanning impropers ...
  2 = max impropers/atom
  reading bonds ...
  1684 bonds
  reading angles ...
  2970 angles
  reading dihedrals ...
  4743 dihedrals
  reading impropers ...
  594 impropers
  4 = max # of 1-2 neighbors
  8 = max # of 1-3 neighbors
  12 = max # of special neighbors
################################################################################

min_style fire
minimize 0.001 0.001 10000 100000
WARNING: Using 'neigh_modify every 1 delay 0 check yes' setting during minimization (src/min.cpp:168)
PPPM initialization ...
WARNING: System is not charge neutral, net charge = -6.57756 (src/kspace.cpp:302)
  using 12-bit tables for long-range coulomb (src/kspace.cpp:321)
  G vector (1/distance) = 0.125618
  grid = 5 5 5
  stencil order = 5
  estimated absolute RMS force accuracy = 0.0235212
  estimated relative force accuracy = 7.08333e-05
  using double precision FFTs
  3d grid and FFT values/proc = 1000 125
Neighbor list info ...
  update every 1 steps, delay 0 steps, check yes
  max neighbors/atom: 2000, page size: 100000
  master list distance cutoff = 14
  ghost atom cutoff = 14
  binsize = 7, bins = 6 6 6
  1 neighbor lists, perpetual/occasional/extra = 1 0 0
  (1) pair lj/cut/coul/long, perpetual
      attributes: half, newton on
      pair build: half/bin/newton
      stencil: half/bin/3d/newton
      bin: standard
Per MPI rank memory allocation (min/avg/max) = 18.44 | 18.44 | 18.44 Mbytes
Step Temp E_pair E_mol TotEng Press 
       0            0    5204.7717    620.77583    5825.5475    22589.585 
      14    56.196405    5007.3179    608.63316    5881.4557     21732.41 
Loop time of 0.313346 on 4 procs for 14 steps with 1586 atoms

88.1% CPU use with 1 MPI tasks x 4 OpenMP threads

Minimization stats:
  Stopping criterion = energy tolerance
  Energy initial, next-to-last, final = 
         5825.54754174      5614.59548733      5615.95108776
  Force two-norm initial, final = 668.9 336.919
  Force max component initial, final = 210.556 113.732
  Final line search alpha, max atom move = 0 0
  Iterations, force evaluations = 14 14

MPI task timing breakdown:
Section |  min time  |  avg time  |  max time  |%varavg| %total
---------------------------------------------------------------
Pair    | 0.27532    | 0.27532    | 0.27532    |   0.0 | 87.86
Bond    | 0.017133   | 0.017133   | 0.017133   |   0.0 |  5.47
Kspace  | 0.018392   | 0.018392   | 0.018392   |   0.0 |  5.87
Neigh   | 0          | 0          | 0          |   0.0 |  0.00
Comm    | 0.0013034  | 0.0013034  | 0.0013034  |   0.0 |  0.42
Output  | 0          | 0          | 0          |   0.0 |  0.00
Modify  | 0          | 0          | 0          |   0.0 |  0.00
Other   |            | 0.001199   |            |       |  0.38

Nlocal:    1586 ave 1586 max 1586 min
Histogram: 1 0 0 0 0 0 0 0 0 0
Nghost:    6977 ave 6977 max 6977 min
Histogram: 1 0 0 0 0 0 0 0 0 0
Neighs:    306830 ave 306830 max 306830 min
Histogram: 1 0 0 0 0 0 0 0 0 0

Total # of neighbors = 306830
Ave neighs/atom = 193.462
Ave special neighs/atom = 5.86885
Neighbor list builds = 0
Dangerous builds = 0
write_dump all custom pysimm.dump.tmp id q x y z vx vy vz
quit


################################################################################
##################################    Init    ##################################
################################################################################
units           real
atom_style      full
pair_style      lj/cut/coul/long 12.0  12.0
kspace_style    pppm 1e-4
bond_style      harmonic
angle_style     harmonic
dihedral_style  harmonic
improper_style  umbrella
special_bonds   dreiding
pair_modify     mix arithmetic
read_data       temp.lmps
  orthogonal box = (-19.4414 -19.4414 -19.4414) to (19.4414 19.4414 19.4414)
  1 by 1 by 1 MPI processor grid
  reading atoms ...
  1602 atoms
  reading velocities ...
  1602 velocities
  scanning bonds ...
  3 = max bonds/atom
  scanning angles ...
  6 = max angles/atom
  scanning dihedrals ...
  15 = max dihedrals/atom
  scanning impropers ...
  2 = max impropers/atom
  reading bonds ...
  1701 bonds
  reading angles ...
  3000 angles
  reading dihedrals ...
  4791 dihedrals
  reading impropers ...
  600 impropers
  4 = max # of 1-2 neighbors
  8 = max # of 1-3 neighbors
  12 = max # of special neighbors
################################################################################

min_style fire
minimize 0.001 0.001 10000 100000
WARNING: Using 'neigh_modify every 1 delay 0 check yes' setting during minimization (src/min.cpp:168)
PPPM initialization ...
WARNING: System is not charge neutral, net charge = -6.64468 (src/kspace.cpp:302)
  using 12-bit tables for long-range coulomb (src/kspace.cpp:321)
  G vector (1/distance) = 0.125618
  grid = 5 5 5
  stencil order = 5
  estimated absolute RMS force accuracy = 0.0236397
  estimated relative force accuracy = 7.11904e-05
  using double precision FFTs
  3d grid and FFT values/proc = 1000 125
Neighbor list info ...
  update every 1 steps, delay 0 steps, check yes
  max neighbors/atom: 2000, page size: 100000
  master list distance cutoff = 14
  ghost atom cutoff = 14
  binsize = 7, bins = 6 6 6
  1 neighbor lists, perpetual/occasional/extra = 1 0 0
  (1) pair lj/cut/coul/long, perpetual
      attributes: half, newton on
      pair build: half/bin/newton
      stencil: half/bin/3d/newton
      bin: standard
Per MPI rank memory allocation (min/avg/max) = 18.46 | 18.46 | 18.46 Mbytes
Step Temp E_pair E_mol TotEng Press 
       0            0    5257.1503    625.33085    5882.4811     22751.79 
      13    63.300659    5056.8695    612.25445    5971.2122    22044.692 
Loop time of 0.374083 on 4 procs for 13 steps with 1602 atoms

74.3% CPU use with 1 MPI tasks x 4 OpenMP threads

Minimization stats:
  Stopping criterion = energy tolerance
  Energy initial, next-to-last, final = 
         5882.48113594      5667.51170309       5669.1239526
  Force two-norm initial, final = 697.424 294.794
  Force max component initial, final = 223.033 96.5924
  Final line search alpha, max atom move = 0 0
  Iterations, force evaluations = 13 13

MPI task timing breakdown:
Section |  min time  |  avg time  |  max time  |%varavg| %total
---------------------------------------------------------------
Pair    | 0.33739    | 0.33739    | 0.33739    |   0.0 | 90.19
Bond    | 0.016363   | 0.016363   | 0.016363   |   0.0 |  4.37
Kspace  | 0.018127   | 0.018127   | 0.018127   |   0.0 |  4.85
Neigh   | 0          | 0          | 0          |   0.0 |  0.00
Comm    | 0.0011125  | 0.0011125  | 0.0011125  |   0.0 |  0.30
Output  | 0          | 0          | 0          |   0.0 |  0.00
Modify  | 0          | 0          | 0          |   0.0 |  0.00
Other   |            | 0.001088   |            |       |  0.29

Nlocal:    1602 ave 1602 max 1602 min
Histogram: 1 0 0 0 0 0 0 0 0 0
Nghost:    7083 ave 7083 max 7083 min
Histogram: 1 0 0 0 0 0 0 0 0 0
Neighs:    312068 ave 312068 max 312068 min
Histogram: 1 0 0 0 0 0 0 0 0 0

Total # of neighbors = 312068
Ave neighs/atom = 194.799
Ave special neighs/atom = 5.86891
Neighbor list builds = 0
Dangerous builds = 0
write_dump all custom pysimm.dump.tmp id q x y z vx vy vz
quit
