Random packing of 100 x PIM-1_mon.lmps

3500 atoms
4178 bonds
7134 angles
11035 dihedrals
0 impropers

11 atom types
14 bond types
25 angle types
38 dihedral types

 13.345100  56.654800 xlo xhi 
 13.345100  56.654800 ylo yhi 
 13.345100  56.654800 zlo zhi 

Masses

  1         15.999400    # OA0
  2         12.011000    # CS0
  3         13.018940    # CA1
  4         12.011000    # CA0
  5         12.011000    # CH0
  6         14.026880    # CH2
  7         15.034820    # CH3
  8         12.011000    # LCS0
  9         12.011000    # CL0
  10        14.006740    # NL0
  11        15.999400    # LOA0

Pair Coeffs

  1          0.139104    2.599999    # OA0
  2          0.059616    3.700000    # CS0
  3          0.100354    3.695002    # CA1
  4          0.041731    3.879998    # CA0
  5          0.000994    6.400003    # CH0
  6          0.091411    3.950004    # CH2
  7          0.194746    3.749998    # CH3
  8          0.059616    3.700000    # LCS0
  9          0.119232    3.550000    # CL0
  10         0.119232    2.949997    # NL0
  11         0.139104    2.599999    # LOA0

Bond Coeffs

  1        372.400000    1.373000    # CS0,OA0
  2        478.400000    1.387000    # CS0,CS0
  3        478.400000    1.387000    # CA0,CA1
  4        478.400000    1.387000    # CA0,CA0
  5        478.400000    1.387000    # CS0,CA1
  6        303.100000    1.535000    # CH2,CH0
  7        323.500000    1.513000    # CA0,CH0
  8        303.100000    1.535000    # CH0,CH3
  9        478.400000    1.387000    # LCS0,LCS0
  10       478.400000    1.387000    # CS0,CA0
  11       478.400000    1.387000    # LCS0,CA0
  12       404.100000    1.440000    # CA0,CL0
  13      1014.500000    1.138000    # CL0,NL0
  14       372.400000    1.373000    # CS0,LOA0

Angle Coeffs

  1         63.310000  119.950000    # CS0,OA0,CS0
  2         69.790000  119.200000    # OA0,CS0,CS0
  3         69.790000  119.200000    # OA0,CS0,CA1
  4         67.180000  119.970000    # CS0,CS0,CA1
  5         67.180000  119.970000    # CA0,CA1,CS0
  6         67.180000  119.970000    # CA1,CA0,CA0
  7         63.840000  120.630000    # CA1,CA0,CH0
  8         63.840000  120.630000    # CA0,CA0,CH0
  9         63.250000  112.090000    # CH2,CH0,CA0
  10        63.210000  110.630000    # CH2,CH0,CH3
  11        63.250000  112.090000    # CA0,CH0,CH3
  12        63.210000  110.630000    # CH3,CH0,CH3
  13        63.210000  110.630000    # CH0,CH2,CH0
  14        63.210000  110.630000    # CH2,CH0,CH2
  15        63.660000  112.260000    # CA0,CH0,CA0
  16        67.180000  119.970000    # LCS0,LCS0,CA0
  17        67.180000  119.970000    # CS0,CA0,LCS0
  18        65.860000  120.000000    # CS0,CA0,CL0
  19        65.860000  120.000000    # LCS0,CA0,CL0
  20        67.180000  119.970000    # CA0,CS0,CS0
  21        69.790000  119.200000    # CA0,CS0,OA0
  22        63.140000  180.000000    # CA0,CL0,NL0
  23        69.790000  119.200000    # LOA0,CS0,CS0
  24        69.790000  119.200000    # LOA0,CS0,CA1
  25        67.180000  119.970000    # CS0,CA0,CS0

Dihedral Coeffs

  1          0.900000   -1    2    # CS0,CS0,OA0,CS0
  2          0.900000   -1    2    # CA1,CS0,OA0,CS0
  3          3.625000   -1    2    # OA0,CS0,CS0,OA0
  4          3.625000   -1    2    # OA0,CS0,CS0,CA1
  5          3.625000   -1    2    # CA1,CS0,CS0,CA1
  6          3.625000   -1    2    # CA0,CA0,CA1,CS0
  7          3.625000   -1    2    # CH0,CA0,CA1,CS0
  8          3.625000   -1    2    # CA1,CA0,CA0,CA1
  9          3.625000   -1    2    # CA1,CA0,CA0,CH0
  10         3.625000   -1    2    # CH0,CA0,CA0,CH0
  11         3.625000   -1    2    # CS0,CS0,CA1,CA0
  12         3.625000   -1    2    # OA0,CS0,CA1,CA0
  13         0.155550    1    3    # CH0,CH2,CH0,CA0
  14         0.155550    1    3    # CH0,CH2,CH0,CH3
  15         0.000000    1    2    # CA0,CA0,CH0,CH2
  16         0.000000    1    2    # CA0,CA0,CH0,CH3
  17         0.000000    1    2    # CA1,CA0,CH0,CH2
  18         0.000000    1    2    # CA1,CA0,CH0,CH3
  19         0.155550    1    3    # CH0,CH2,CH0,CH2
  20         0.000000    1    2    # CA0,CA0,CH0,CA0
  21         0.000000    1    2    # CA1,CA0,CH0,CA0
  22         3.625000   -1    2    # CA0,LCS0,LCS0,CA0
  23         3.625000   -1    2    # CS0,CS0,CA0,LCS0
  24         3.625000   -1    2    # CS0,CS0,CA0,CL0
  25         3.625000   -1    2    # OA0,CS0,CA0,LCS0
  26         3.625000   -1    2    # OA0,CS0,CA0,CL0
  27         3.625000   -1    2    # CA0,CS0,CS0,CA0
  28         3.625000   -1    2    # CA0,CS0,CS0,OA0
  29         3.625000   -1    2    # LCS0,LCS0,CA0,CS0
  30         3.625000   -1    2    # LCS0,LCS0,CA0,CL0
  31         0.000000   -1    2    # CS0,CA0,CL0,NL0
  32         0.000000   -1    2    # LCS0,CA0,CL0,NL0
  33         0.900000   -1    2    # CA0,CS0,OA0,CS0
  34         3.625000   -1    2    # LOA0,CS0,CS0,LOA0
  35         3.625000   -1    2    # LOA0,CS0,CS0,CA1
  36         3.625000   -1    2    # LOA0,CS0,CA1,CA0
  37         3.625000   -1    2    # CS0,CS0,CA0,CS0
  38         3.625000   -1    2    # OA0,CS0,CA0,CS0

Atoms

  1       1    4      0.038400     12.749100     35.706600     21.596200
  2       1    4      0.038400     13.934700     36.440000     21.362800
  3       1    5      0.097900     15.150600     35.490900     21.138800
  4       1    6     -0.016500     14.486300     34.092500     21.030000
  5       1    7      0.000000     16.120200     35.513800     22.285000
  6       1    5      0.097900     12.989000     34.211300     21.328800
  7       1    6     -0.016500     12.200500     33.663800     20.099800
  8       1    5      0.097900     11.046700     32.710000     20.606800
  9       1    4      0.038400     11.484700     32.466400     22.075000
  10      1    4      0.038400     12.555400     33.285500     22.447200
  11      1    3     -0.125000     12.970600     33.288500     23.795400
  12      1    2      0.177800     12.293600     32.505900     24.720300
  13      1    2      0.177800     11.284000     31.588100     24.242200
  14      1    3     -0.125000     10.919900     31.570400     22.921700
  15      1    1     -0.219100     10.822000     30.666400     25.138100
  16      1    1     -0.219100     12.587700     32.623000     26.051700
  17      1    7      0.000000      9.593680     33.309700     20.415600
  18      1    7      0.000000     11.173200     31.476600     19.785900
  19      1    2      0.172300     12.055200     31.761500     26.942000
  20      1    2      0.172300     11.231300     30.698700     26.468300
  21      1    4     -0.123000     10.597000     29.823900     27.389400
  22      1    9      0.313700      9.685470     28.778600     26.916900
  23      1    10    -0.410000      8.902540     27.957900     26.748400
  24      1    1     -0.219100     12.783600     39.774000     22.540300
  25      1    2      0.177800     11.598700     37.706700     22.257100
  26      1    1     -0.219100     10.397900     38.380600     22.538500
  27      1    3     -0.125000     11.585400     36.308900     22.043800
  28      1    2      0.172300     10.969800     29.922300     28.751700
  29      1    2      0.172300     11.945000     30.888000     29.157500
  30      1    4     -0.123000     12.415100     31.828500     28.296100
  31      1    9      0.313700     13.080900     32.978700     28.888700
  32      1    10    -0.410000     13.599600     33.909400     29.394800
  33      1    2      0.177800     12.778500     38.442500     22.127700
  34      1    3     -0.125000     13.950500     37.791500     21.678800
  35      1    7      0.000000     15.969000     35.846700     19.865600
  36      2    4      0.038400     19.659400     30.647700     54.326800
  37      2    4      0.038400     20.429100     30.813200     55.508600
  38      2    5      0.097900     21.804400     30.163700     55.333100
  39      2    6     -0.016500     21.574600     29.292600     54.004200
  40      2    7      0.000000     22.341600     29.091900     56.388800
  41      2    5      0.097900     20.232100     29.694600     53.288800
  42      2    6     -0.016500     20.568100     30.159300     51.874500
  43      2    5      0.097900     19.940400     29.198300     50.833300
  44      2    4      0.038400     19.165100     28.187200     51.691700
  45      2    4      0.038400     19.354600     28.409500     53.074400
  46      2    3     -0.125000     18.591500     27.784100     53.972500
  47      2    2      0.177800     17.620700     26.841700     53.516100
  48      2    2      0.177800     17.537600     26.403300     52.227600
  49      2    3     -0.125000     18.335200     27.126000     51.288200
  50      2    1     -0.219100     16.647500     25.411700     51.926300
  51      2    1     -0.219100     16.826400     26.238100     54.471600
  52      2    7      0.000000     18.952500     29.955100     49.899700
  53      2    7      0.000000     21.125100     28.587900     50.061700
  54      2    2      0.172300     15.887900     25.316500     54.172800
  55      2    2      0.172300     15.761700     24.887700     52.819500
  56      2    4     -0.123000     14.796400     23.925900     52.490400
  57      2    9      0.313700     14.576600     23.578900     51.134200
  58      2    10    -0.410000     14.466600     23.242500     50.048400
  59      2    1     -0.219100     17.925600     32.182200     57.882200
  60      2    2      0.177800     17.776800     31.510200     55.576900
  61      2    1     -0.219100     16.531100     32.164000     55.465200
  62      2    3     -0.125000     18.354300     31.025600     54.358300
  63      2    2      0.172300     13.914600     23.532400     53.541800
  64      2    2      0.172300     13.955600     24.101300     54.833200
  65      2    4     -0.123000     15.061700     24.888500     55.189300
  66      2    9      0.313700     14.967600     25.702800     56.387800
  67      2    10    -0.410000     14.875500     26.367000     57.330000
  68      2    2      0.177800     18.513100     31.568900     56.757500
  69      2    3     -0.125000     19.869000     31.191600     56.716100
  70      2    7      0.000000     22.842400     31.280400     55.071900
  71      3    4      0.038400     15.667400     29.776800     41.657000
  72      3    4      0.038400     14.680700     29.216200     42.489400
  73      3    5      0.097900     14.142300     30.170800     43.542300
  74      3    6     -0.016500     14.890100     31.455000     43.130400
  75      3    7      0.000000     14.554500     29.753000     44.993400
  76      3    5      0.097900     15.922000     31.230200     41.995000
  77      3    6     -0.016500     15.784100     32.219500     40.760300
  78      3    5      0.097900     17.053500     33.105900     40.665200
  79      3    4      0.038400     18.029800     32.480300     41.655400
  80      3    4      0.038400     17.402300     31.449800     42.407300
  81      3    3     -0.125000     18.093700     30.730400     43.399600
  82      3    2      0.177800     19.468100     30.853600     43.499300
  83      3    2      0.177800     20.077300     31.975000     42.915500
  84      3    3     -0.125000     19.398800     32.743700     41.936500
  85      3    1     -0.219100     21.393200     32.227900     43.398600
  86      3    1     -0.219100     20.157600     30.045900     44.339400
  87      3    7      0.000000     17.651800     33.067700     39.233900
  88      3    7      0.000000     16.678200     34.643600     40.794900
  89      3    2      0.172300     21.495600     30.242900     44.684100
  90      3    2      0.172300     22.077900     31.464600     44.332400
  91      3    4     -0.123000     23.295400     31.867900     44.916200
  92      3    9      0.313700     23.886700     33.123800     44.632700
  93      3    10    -0.410000     24.451700     34.119100     44.387300
  94      3    11    -0.219100     15.119700     25.581500     41.788500
  95      3    2      0.177800     16.333200     27.522800     40.930900
  96      3    11    -0.219100     17.173700     26.694300     40.184200
  97      3    3     -0.125000     16.465600     28.907700     40.832500
  98      3    2      0.172300     23.854200     31.073500     45.920500
  99      3    2      0.172300     23.314100     29.813000     46.210600
  100     3    4     -0.123000     22.089100     29.412300     45.612400
  101     3    9      0.313700     21.417000     28.278500     46.160900
  102     3    10    -0.410000     20.876500     27.406300     46.707400
  103     3    2      0.177800     15.360100     27.002700     41.726000
  104     3    3     -0.125000     14.551300     27.767300     42.483300
  105     3    7      0.000000     12.651200     30.222800     43.307900
  106     4    4      0.038400     41.053200     71.640400     53.679800
  107     4    4      0.038400     40.855900     70.918500     52.450600
  108     4    5      0.097900     40.222700     71.852300     51.411700
  109     4    6     -0.016500     39.890500     73.094500     52.157500
  110     4    7      0.000000     38.951800     71.307100     50.721900
  111     4    5      0.097900     40.458300     73.021200     53.643400
  112     4    6     -0.016500     41.570600     74.145800     53.806900
  113     4    5      0.097900     41.362900     74.964100     55.129700
  114     4    4      0.038400     40.062300     74.418700     55.652600
  115     4    4      0.038400     39.560700     73.402400     54.837500
  116     4    3     -0.125000     38.309000     72.796600     55.100500
  117     4    2      0.177800     37.523500     73.354900     56.162400
  118     4    2      0.177800     38.015000     74.424000     56.959400
  119     4    3     -0.125000     39.248600     75.022200     56.681200
  120     4    1     -0.219100     37.406500     74.690000     58.203500
  121     4    1     -0.219100     36.362600     72.767700     56.567900
  122     4    7      0.000000     42.442500     74.531000     56.137800
  123     4    7      0.000000     41.323100     76.512900     54.816700
  124     4    2      0.172300     35.761300     72.999200     57.811300
  125     4    2      0.172300     36.368900     73.940700     58.696300
  126     4    4     -0.123000     35.995900     73.966000     60.081000
  127     4    9      0.313700     36.776600     74.741800     61.058400
  128     4    10    -0.410000     37.497300     75.327200     61.710200
  129     4    1     -0.219100     41.717600     67.516300     53.463100
  130     4    2      0.177800     41.792000     69.554400     54.696800
  131     4    1     -0.219100     42.157800     68.851100     55.816500
  132     4    3     -0.125000     41.547200     70.896100     54.811100
  133     4    2      0.172300     34.928700     73.138500     60.446800
  134     4    2      0.172300     34.268200     72.321400     59.534600
  135     4    4     -0.123000     34.712500     72.192500     58.227400
  136     4    9      0.313700     34.212800     71.211300     57.195900
  137     4    10    -0.410000     33.795900     70.398100     56.517800
  138     4    2      0.177800     41.592700     68.889900     53.470200
  139     4    3     -0.125000     41.111000     69.529400     52.332800
  140     4    7      0.000000     41.163000     72.252100     50.244300
  141     5    4      0.038400     22.314100     68.900400     60.671500
  142     5    4      0.038400     21.585100     69.637000     59.720000
  143     5    5      0.097900     20.886600     68.692600     58.693100
  144     5    6     -0.016500     21.313100     67.258000     59.182900
  145     5    7      0.000000     21.343500     68.746200     57.194000
  146     5    5      0.097900     22.447400     67.378100     60.292700
  147     5    6     -0.016500     22.172200     66.465400     61.510300
  148     5    5      0.097900     23.546900     65.821200     62.011800
  149     5    4      0.038400     24.489900     66.227100     60.916400
  150     5    4      0.038400     23.895500     67.047400     59.936900
  151     5    3     -0.125000     24.659000     67.459600     58.738700
  152     5    2      0.177800     26.039900     67.133300     58.655000
  153     5    2      0.177800     26.593000     66.343500     59.642900
  154     5    3     -0.125000     25.871600     65.910800     60.801300
  155     5    1     -0.219100     27.946500     66.124700     59.646000
  156     5    1     -0.219100     26.861000     67.481300     57.569400
  157     5    7      0.000000     23.972100     66.344400     63.351200
  158     5    7      0.000000     23.498700     64.248700     62.095500
  159     5    2      0.172300     28.236400     67.334200     57.563500
  160     5    2      0.172300     28.836000     66.736500     58.668700
  161     5    4     -0.123000     30.222600     66.572200     58.583100
  162     5    9      0.313700     30.844300     65.904700     59.706900
  163     5    10    -0.410000     31.324800     65.450500     60.598000
  164     5    1     -0.219100     22.163000     73.192700     60.969400
  165     5    2      0.177800     22.788500     71.059400     61.830000
  166     5    1     -0.219100     23.304000     71.681900     62.944700
  167     5    3     -0.125000     22.911500     69.642100     61.733600
  168     5    2      0.172300     30.956400     66.991500     57.435900
  169     5    2      0.172300     30.285800     67.668100     56.375300
  170     5    4     -0.123000     28.920100     67.951400     56.501400
  171     5    9      0.313700     28.216000     68.760400     55.559700
  172     5    10    -0.410000     27.744500     69.428100     54.794800
  173     5    2      0.177800     22.092500     71.777000     60.873000
  174     5    3     -0.125000     21.507300     71.074200     59.772900
  175     5    7      0.000000     19.394200     68.699600     58.821100
  176     3    4      0.038400     48.371600     39.894100     59.077000
  177     3    4      0.038400     47.866500     39.249200     60.223700
  178     3    5      0.097900     47.016400     40.205000     61.074500
  179     3    6     -0.016500     47.002800     41.512500     60.121300
  180     3    7      0.000000     47.611300     40.422100     62.526600
  181     3    5      0.097900     47.927600     41.344000     58.848900
  182     3    6     -0.016500     47.083600     41.574300     57.517800
  183     3    5      0.097900     47.793300     42.701000     56.755600
  184     3    4      0.038400     48.853300     43.213100     57.708400
  185     3    4      0.038400     48.939700     42.428900     58.858700
  186     3    3     -0.125000     49.980900     42.604300     59.794600
  187     3    2      0.177800     50.843100     43.682400     59.622900
  188     3    2      0.177800     50.678200     44.609200     58.552300
  189     3    3     -0.125000     49.742800     44.359700     57.530200
  190     3    1     -0.219100     51.671900     45.566300     58.373400
  191     3    1     -0.219100     52.011000     43.827900     60.395500
  192     3    7      0.000000     48.450400     42.277400     55.462400
  193     3    7      0.000000     46.618300     43.728000     56.514200
  194     3    2      0.172300     53.039700     44.732700     60.121700
  195     3    2      0.172300     52.764400     45.765900     59.207400
  196     3    4     -0.123000     53.638700     46.796800     59.038500
  197     3    9      0.313700     53.326000     47.859400     58.232000
  198     3    10    -0.410000     53.196300     48.759100     57.606500
  199     3    1     -0.219100     49.558100     36.046600     60.150100
  200     3    2      0.177800     49.627000     37.823100     58.584400
  201     3    1     -0.219100     50.465900     37.027600     57.742100
  202     3    3     -0.125000     49.284600     39.141700     58.266000
  203     3    2      0.172300     54.840600     46.829700     59.753800
  204     3    2      0.172300     55.247900     45.684100     60.506500
  205     3    4     -0.123000     54.276600     44.653500     60.776800
  206     3    9      0.313700     54.590000     43.540300     61.716800
  207     3    10    -0.410000     54.763000     42.636500     62.374100
  208     3    2      0.177800     49.148500     37.280100     59.786800
  209     3    3     -0.125000     48.263700     37.974900     60.627100
  210     3    7      0.000000     45.554400     39.707000     61.234900
  211     2    4      0.038400     33.784200     37.927400     50.200200
  212     2    4      0.038400     34.975900     38.624800     49.816800
  213     2    5      0.097900     34.924600     39.971900     50.405100
  214     2    6     -0.016500     33.657700     40.070900     51.285600
  215     2    7      0.000000     34.860400     40.992800     49.230000
  216     2    5      0.097900     32.969800     38.691500     51.330500
  217     2    6     -0.016500     33.211900     37.983300     52.740600
  218     2    5      0.097900     31.822700     37.627900     53.357700
  219     2    4      0.038400     30.850300     38.004000     52.232000
  220     2    4      0.038400     31.467000     38.547700     51.121300
  221     2    3     -0.125000     30.625100     38.956300     50.026600
  222     2    2      0.177800     29.250700     38.665900     50.058600
  223     2    2      0.177800     28.712600     38.063900     51.206400
  224     2    3     -0.125000     29.450400     37.815900     52.365400
  225     2    1     -0.219100     27.343200     38.010200     51.302800
  226     2    1     -0.219100     28.448100     39.167200     49.006100
  227     2    7      0.000000     31.724000     36.127200     53.667000
  228     2    7      0.000000     31.685800     38.453200     54.645500
  229     2    2      0.172300     27.186400     39.513300     49.421700
  230     2    2      0.172300     26.605900     38.846100     50.548100
  231     2    4     -0.123000     25.376400     39.224000     51.077200
  232     2    9      0.313700     24.785900     38.786000     52.287400
  233     2    10    -0.410000     24.439000     38.400400     53.309600
  234     2    1     -0.219100     36.565300     36.185700     47.636300
  235     2    2      0.177800     34.372000     36.172200     48.654200
  236     2    1     -0.219100     34.110400     35.069700     47.899500
  237     2    3     -0.125000     33.440400     36.684400     49.496600
  238     2    2      0.172300     24.710300     40.342600     50.459400
  239     2    2      0.172300     25.233000     41.011000     49.353000
  240     2    4     -0.123000     26.481900     40.567600     48.800600
  241     2    9      0.313700     27.237600     41.287800     47.868800
  242     2    10    -0.410000     27.882500     41.940200     47.169700
  243     2    2      0.177800     35.633800     36.783200     48.408300
  244     2    3     -0.125000     35.874000     38.071400     48.913800
  245     2    7      0.000000     36.194700     40.421900     51.157700
  246     7    4      0.038400     42.774000     38.363700     -5.258530
  247     7    4      0.038400     41.602100     38.157200     -4.454830
  248     7    5      0.097900     41.044800     39.466600     -4.078540
  249     7    6     -0.016500     42.081100     40.505500     -4.641010
  250     7    7      0.000000     40.911200     39.491100     -2.541490
  251     7    5      0.097900     43.245000     39.802300     -5.486980
  252     7    6     -0.016500     43.422100     40.376200     -6.892930
  253     7    5      0.097900     44.876500     40.792200     -7.161090
  254     7    4      0.038400     45.612200     40.338300     -5.924000
  255     7    4      0.038400     44.724500     39.978200     -4.886030
  256     7    3     -0.125000     45.201400     39.556500     -3.632650
  257     7    2      0.177800     46.589600     39.414000     -3.484830
  258     7    2      0.177800     47.494400     39.678800     -4.556710
  259     7    3     -0.125000     47.005700     40.193000     -5.730310
  260     7    1     -0.219100     48.765500     39.107000     -4.454110
  261     7    1     -0.219100     47.088100     38.711800     -2.358310
  262     7    7      0.000000     45.372600     40.103900     -8.412770
  263     7    7      0.000000     45.012300     42.299300     -7.396100
  264     7    2      0.172300     48.268800     38.006000     -2.419260
  265     7    2      0.172300     49.164700     38.211800     -3.472350
  266     7    4     -0.123000     50.262700     37.421400     -3.698210
  267     7    9      0.313700     51.081300     37.709800     -4.800640
  268     7    10    -0.410000     51.656400     38.051400     -5.700740
  269     7    1     -0.219100     41.398300     34.418700     -4.386890
  270     7    2      0.177800     43.020100     35.878700     -5.348170
  271     7    1     -0.219100     43.804000     34.767700     -5.613900
  272     7    3     -0.125000     43.452100     37.203100     -5.716710
  273     7    2      0.172300     50.531400     36.419400     -2.792800
  274     7    2      0.172300     49.768200     36.274300     -1.598930
  275     7    4     -0.123000     48.604500     37.035700     -1.466000
  276     7    9      0.313700     47.696000     36.802700     -0.370630
  277     7    10    -0.410000     47.026100     36.564800      0.507570
  278     7    2      0.177800     41.896700     35.720800     -4.490010
  279     7    3     -0.125000     41.120300     36.836100     -4.129450
  280     7    7      0.000000     39.655300     39.909000     -4.626670
  281     7    4      0.038400     52.691300      4.247340     -0.793993
  282     7    4      0.038400     51.285800      4.275980     -0.572248
  283     7    5      0.097900     50.689100      2.985460     -0.064917
  284     7    6     -0.016500     51.952800      2.044130      0.056982
  285     7    7      0.000000     49.565900      2.385790     -0.960230
  286     7    5      0.097900     53.287000      2.944220     -0.297277
  287     7    6     -0.016500     54.109400      3.231120      1.004930
  288     7    5      0.097900     55.621700      2.907820      0.791563
  289     7    4      0.038400     55.529100      2.197040     -0.571623
  290     7    4      0.038400     54.341900      2.314320     -1.210630
  291     7    3     -0.125000     54.053900      1.785510     -2.541070
  292     7    2      0.177800     55.092800      1.410490     -3.292310
  293     7    2      0.177800     56.434200      1.506180     -2.771180
  294     7    3     -0.125000     56.644700      1.911460     -1.434170
  295     7    1     -0.219100     57.450800      1.115500     -3.673830
  296     7    1     -0.219100     54.865300      1.020720     -4.605720
  297     7    7      0.000000     56.437300      4.242050      0.765772
  298     7    7      0.000000     56.158900      2.010830      1.952370
  299     7    2      0.172300     55.900300      0.797121     -5.537280
  300     7    2      0.172300     57.206500      0.940249     -5.086640
  301     7    4     -0.123000     58.256700      0.942465     -6.014500
  302     7    9      0.313700     59.607900      1.095590     -5.586160
  303     7    10    -0.410000     60.719700      1.297210     -5.345850
  304     7    1     -0.219100     50.762000      7.784780     -1.656630
  305     7    2      0.177800     52.756900      6.481550     -1.584250
  306     7    1     -0.219100     53.451500      7.518900     -2.082830
  307     7    3     -0.125000     53.434500      5.292510     -1.319340
  308     7    2      0.172300     57.973400      0.929091     -7.411250
  309     7    2      0.172300     56.630300      0.772108     -7.816330
  310     7    4     -0.123000     55.540600      0.796480     -6.896390
  311     7    9      0.313700     54.190800      0.708124     -7.346000
  312     7    10    -0.410000     53.102200      0.654207     -7.659440
  313     7    2      0.177800     51.385300      6.576020     -1.403420
  314     7    3     -0.125000     50.620900      5.440940     -1.007700
  315     7    7      0.000000     49.884300      3.331690      1.274630
  316     5    4      0.038400     62.543700     40.694700    -17.626200
  317     5    4      0.038400     61.132400     40.540600    -17.360200
  318     5    5      0.097900     60.361800     40.500800    -18.671900
  319     5    6     -0.016500     61.438800     40.616200    -19.765000
  320     5    7      0.000000     59.325000     41.606000    -18.708700
  321     5    5      0.097900     62.794100     41.075000    -19.086000
  322     5    6     -0.016500     63.919700     40.239600    -19.721400
  323     5    5      0.097900     64.930500     41.220700    -20.516600
  324     5    4      0.038400     64.299400     42.595300    -20.196500
  325     5    4      0.038400     63.244300     42.541500    -19.270100
  326     5    3     -0.125000     62.553100     43.781100    -18.968800
  327     5    2      0.177800     63.020200     44.999300    -19.506400
  328     5    2      0.177800     64.035700     44.928100    -20.528600
  329     5    3     -0.125000     64.593600     43.781000    -20.963800
  330     5    1     -0.219100     64.465700     46.132800    -21.097200
  331     5    1     -0.219100     62.324000     46.211300    -19.262200
  332     5    7      0.000000     66.416200     41.111300    -20.040700
  333     5    7      0.000000     64.771300     40.922900    -22.022400
  334     5    2      0.172300     62.978100     47.357400    -19.667900
  335     5    2      0.172300     63.956900     47.337200    -20.700700
  336     5    4     -0.123000     64.621300     48.483000    -21.075100
  337     5    9      0.313700     65.857200     48.521300    -21.818900
  338     5    10    -0.410000     66.870300     48.524400    -22.286500
  339     5    1     -0.219100     61.312200     40.248100    -13.745000
  340     5    2      0.177800     63.097900     40.327400    -15.328700