pySIMM System Object

162 atoms
171 bonds
300 angles
471 dihedrals
60 impropers

3 atom types
5 bond types
2 angle types
3 dihedral types
1 improper types

-9.023921 9.023921 xlo xhi
-9.023921 9.023921 ylo yhi
-9.023921 9.023921 zlo zhi

Masses

   1	12.011	# C_R
   2	1.008	# H_
   3	12.011	# C_3

Pair Coeffs

   1	0.0951	3.47299047293	# C_R
   2	0.0152	2.84642140446	# H_
   3	0.0951	3.47299047293	# C_3

Bond Coeffs

   1	525.0	1.39	# C_R,C_R
   2	350.0	1.46	# C_R,C_3
   3	350.0	1.53	# C_3,C_3
   4	350.0	1.09	# C_3,H_
   5	350.0	1.02	# C_R,H_

Angle Coeffs

   1	50.0	109.471	# X,C_3,X
   2	50.0	120.0	# X,C_R,X

Dihedral Coeffs

   1	3.125000	-1	2	# X,C_R,C_R,X
   2	0.111111	1	3	# X,C_3,C_3,X
   3	0.083333	-1	6	# C_R,C_R,C_3,X

Improper Coeffs

   1	40.0	0.0	# C_R,X,X,X

Atoms

   1	1	2	0.03948378820834921	-2.0883346633893285	0.2048061500959646	0.6977553473695888
   2	1	3	-0.04475188085129162	-2.4686928921999156	-0.8132054055475921	0.5461071019057548
   3	1	1	-0.05949937778868791	-1.341542676587387	-1.7889828218794595	0.5872836148875121
   4	1	1	-0.07752348659939227	-0.23489369064720678	-1.5425336330679902	1.3999582971877174
   5	1	1	-0.07752348659939227	-1.3938493333393773	-2.9479218173091986	-0.18710248295498966
   6	1	3	-0.07289713747639255	-3.5370224003907724	-1.1155279341599935	1.5936445573803004
   7	1	1	-0.08309577749885291	0.8193228376222774	-2.455199356614453	1.4381900717587126
   8	1	1	-0.08309577749885291	-0.3395848406450268	-3.860529363764572	-0.14880502094212344
   9	1	1	-0.08360366517078825	0.766986308801314	-3.614197914790206	0.6638785389132444
  10	1	2	0.03948378820834921	-2.926729250633704	-0.8120075053500522	-0.45089077140583367
  11	1	2	0.0845609368538026	-0.18280819477662802	-0.6441515062705252	2.0093059773923603
  12	1	2	0.0845609368538026	-2.2510734040923657	-3.1524609833901973	-0.8230573257391021
  13	1	2	0.02763401760988875	-4.345128523705794	-0.37988464966380975	1.5321831757131665
  14	1	2	0.02763401760988875	-3.120327670524188	-1.0799220003237695	2.6058932519099915
  15	1	2	0.08367681321608178	1.6806762138549884	-2.2636232249200856	2.0713451688854208
  16	1	2	0.08367681321608178	-0.3804902605804722	-4.763322492558482	-0.7512963928491467
  17	1	2	0.0836454600975172	1.5876551492944668	-4.324937024266715	0.6938054917177572
  18	1	3	-0.01711786324140287	-4.143004073409903	-2.507957613971115	1.381656864468587
  19	1	1	-0.05949937778868791	-4.685361156336939	-2.5394442441822864	-0.007285922948095047
  20	1	1	-0.07752348659939227	-5.198620072704416	-1.3767582064206345	-0.5822431234103513
  21	1	1	-0.07752348659939227	-4.679093738197827	-3.731513348880549	-0.7314967894046499
  22	1	3	-0.03341334926804334	-5.21133358160076	-2.8102801425835167	2.4291943199431323
  23	1	1	-0.08309577749885291	-5.705664367495588	-1.4063584823125401	-1.8814054638385387
  24	1	1	-0.08309577749885291	-5.186159531023353	-3.7610161589880597	-2.030652944738557
  25	1	1	-0.08360366517078825	-5.699492741987993	-2.598449864397309	-2.6055982336159107
  26	1	2	0.03948378820834921	-3.322611519702657	-3.2298524750338062	1.4797760134303486
  27	1	2	0.0845609368538026	-5.210736261755102	-0.44206293527357143	-0.02789135056371661
  28	1	2	0.0845609368538026	-4.283650191975516	-4.64457441828973	-0.2944020339105064
  29	1	2	0.02763401760988875	-4.775983448025374	-2.7779487198281485	3.4328919787520524
  30	1	2	0.02763401760988875	-6.025257212068086	-2.078623595544938	2.387281064969672
  31	1	2	0.08367681321608178	-6.105804673258871	-0.5012683326199712	-2.3288604745749844
  32	1	2	0.08367681321608178	-5.181900312563595	-4.689354879545702	-2.594455763968393
  33	1	2	0.0836454600975172	-6.094490197573506	-2.6215954045682235	-3.6170251187891127
  34	1	3	-0.01711786324140287	-5.817315254619891	-4.202709822394638	2.2172066270314197
  35	1	1	-0.05949937778868791	-4.690165039007361	-5.178487238726506	2.2583831400131764
  36	1	1	-0.07752348659939227	-3.5835160530671804	-4.932038049915039	3.0710578223133824
  37	1	1	-0.07752348659939227	-4.742471695759354	-6.337426234156246	1.483997042170674
  38	1	3	-0.03341334926804334	-6.885644762810748	-4.50503235100704	3.264744082505965
  39	1	1	-0.08309577749885291	-2.5292995247976977	-5.844703773461501	3.109289596884376
  40	1	1	-0.08309577749885291	-3.6882072030650024	-7.250033780611619	1.52229450418354
  41	1	1	-0.08360366517078825	-2.581636053618661	-7.003702331637254	2.334978064038909
  42	1	2	0.03948378820834921	-6.2753516130536795	-4.201511922197098	1.2202087537198318
  43	1	2	0.0845609368538026	-3.531430557196603	-4.033655923117573	3.680405502518026
  44	1	2	0.0845609368538026	-5.599695766512341	-6.5419654002372445	0.8480421993865626
  45	1	2	0.02763401760988875	-7.69375088612577	-3.7693890665108567	3.203282700838832
  46	1	2	0.02763401760988875	-6.468950032944163	-4.469426417170816	4.276992777035655
  47	1	2	0.08367681321608178	-1.667946148564985	-5.653127641767136	3.7424446940110867
  48	1	2	0.08367681321608178	-3.729112623000449	-8.15282690940553	0.9198031322765166
  49	1	2	0.0836454600975172	-1.76096721312551	-7.714441441113761	2.364905016843421
  50	1	3	-0.01711786324140287	-7.491626435829879	-5.897462030818161	3.0527563895942516
  51	1	1	-0.05949937778868791	-8.033983518756916	-5.928948661029331	1.6638136021775694
  52	1	1	-0.07752348659939227	-8.547242435124392	-4.7662626232676795	1.0888564017153106
  53	1	1	-0.07752348659939227	-8.027716100617805	-7.121017765727597	0.939602735721015
  54	1	3	-0.03341334926804334	-8.559955944020736	-6.199784559430563	4.100293845068798
  55	1	1	-0.08309577749885291	-9.054286729915564	-4.795862899159586	-0.21030593871287362
  56	1	1	-0.08309577749885291	-8.534781893443329	-7.150520575835106	-0.35955341961289333
  57	1	1	-0.08360366517078825	-9.04811510440797	-5.9879542812443525	-0.9344987084902465
  58	1	2	0.03948378820834921	-6.6712338821226345	-6.6193568918808525	3.150875538556014
  59	1	2	0.0845609368538026	-8.559358624175077	-3.8315673521206186	1.6432081745619485
  60	1	2	0.0845609368538026	-7.6322725543954935	-8.034078835136778	1.376697491215157
  61	1	2	0.02763401760988875	-8.124605810445352	-6.167453136675195	5.103991503877715
  62	1	2	0.02763401760988875	-9.373879574488061	-5.468128012391984	4.058380590095338
  63	1	2	0.08367681321608178	-9.454427035678847	-3.8907727494670175	-0.6577609494493197
  64	1	2	0.08367681321608178	-8.530522674983573	-8.07885929639275	-0.9233562388427288
  65	1	2	0.0836454600975172	-9.443112559993484	-6.01109982141527	-1.9459255936634472
  66	1	3	-0.01711786324140287	-9.165937617039866	-7.5922142392416845	3.8883061521570843
  67	1	1	-0.05949937778868791	-8.038787401427339	-8.56799165557355	3.929482665138842
  68	1	1	-0.07752348659939227	-6.932138415487152	-8.321542466762082	4.742157347439047
  69	1	1	-0.07752348659939227	-8.09109405817933	-9.726930651003293	3.155096567296342
  70	1	3	-0.03341334926804334	-10.234267125230723	-7.894536767854085	4.93584360763163
  71	1	1	-0.08309577749885291	-5.877921887217671	-9.234208190308546	4.780389122010041
  72	1	1	-0.08309577749885291	-7.036829565484977	-10.639538197458663	3.193394029309204
  73	1	1	-0.08360366517078825	-5.930258416038633	-10.393206748484296	4.006077589164574
  74	1	2	0.03948378820834921	-9.623973975473657	-7.591016339044145	2.891308278845499
  75	1	2	0.0845609368538026	-6.880052919616579	-7.4231603399646175	5.3515050276436895
  76	1	2	0.0845609368538026	-8.948318128932316	-9.931469817084292	2.519141724512228
  77	1	2	0.02763401760988875	-11.042373248545744	-7.158893483357905	4.874382225964498
  78	1	2	0.02763401760988875	-9.817572395364138	-7.85893083401786	5.94809230216132
  79	1	2	0.08367681321608178	-5.0165685109849605	-9.042632058614178	5.41354421913675
  80	1	2	0.08367681321608178	-7.077734985420424	-11.542331326252576	2.5909026574021814
  81	1	2	0.0836454600975172	-5.109589575545481	-11.103945857960808	4.0360045419690875
  82	1	3	-0.01711786324140287	-10.840248798249853	-9.28696644766521	4.72385591471992
  83	1	1	-0.05949937778868791	-9.713098582637326	-10.262743863997075	4.765032427701677
  84	1	1	-0.07752348659939227	-8.60644959669714	-10.016294675185607	5.5777071100018825
  85	1	1	-0.07752348659939227	-9.765405239389317	-11.421682859426818	3.9906463298591768
  86	1	3	-0.03341334926804334	-11.90857830644071	-9.58928897627761	5.771393370194465
  87	1	1	-0.08309577749885291	-7.552233068427658	-10.928960398732071	5.615938884572876
  88	1	1	-0.08309577749885291	-8.711140746694964	-12.334290405882188	4.028943791872039
  89	1	1	-0.08360366517078825	-7.604569597248621	-12.087958956907821	4.84162735172741
  90	1	2	0.03948378820834921	-11.298285156683644	-9.28576854746767	3.726858041408334
  91	1	2	0.0845609368538026	-8.554364100826566	-9.117912548388142	6.187054790206525
  92	1	2	0.0845609368538026	-10.622629310142303	-11.626222025507817	3.354691487075063
  93	1	2	0.02763401760988875	-12.71668442975573	-8.85364569178143	5.709931988527334
  94	1	2	0.02763401760988875	-11.491883576574125	-9.553683042441385	6.783642064724155
  95	1	2	0.08367681321608178	-6.690879692194948	-10.737384267037703	6.249093981699586
  96	1	2	0.08367681321608178	-8.75204616663041	-13.2370835346761	3.4264524199650164
  97	1	2	0.0836454600975172	-6.783900756755469	-12.798698066384333	4.871554304531923
  98	1	3	-0.01711786324140287	-12.51455997945984	-10.981718656088734	5.559405677282755
  99	1	1	-0.05949937778868791	-11.387409763847312	-11.9574960724206	5.600582190264513
 100	1	1	-0.07752348659939227	-10.280760777907126	-11.711046883609132	6.413256872564718
 101	1	1	-0.07752348659939227	-11.439716420599304	-13.116435067850343	4.826196092422012
 102	1	3	-0.03341334926804334	-13.582889487650696	-11.284041184701135	6.6069431327573005
 103	1	1	-0.08309577749885291	-9.226544249637644	-12.623712607155596	6.451488647135712
 104	1	1	-0.08309577749885291	-10.38545192790495	-14.029042614305713	4.864493554434874
 105	1	1	-0.08360366517078825	-9.278880778458607	-13.782711165331346	5.677177114290245
 106	1	2	0.03948378820834921	-12.97259633789363	-10.980520755891195	4.56240780397117
 107	1	2	0.0845609368538026	-10.228675282036553	-10.812664756811667	7.02260455276936
 108	1	2	0.0845609368538026	-12.29694049135229	-13.320974233931342	4.190241249637898
 109	1	2	0.02763401760988875	-14.390995610965717	-10.548397900204955	6.545481751090169
 110	1	2	0.02763401760988875	-13.166194757784112	-11.24843525086491	7.619191827286991
 111	1	2	0.08367681321608178	-8.365190873404936	-12.432136475461228	7.084643744262421
 112	1	2	0.08367681321608178	-10.426357347840398	-14.931835743099626	4.262002182527852
 113	1	2	0.0836454600975172	-8.458211937965457	-14.493450274807858	5.707104067094758
 114	1	3	-0.01711786324140287	-14.188871160669827	-12.67647086451226	6.394955439845591
 115	1	1	-0.05949937778868791	-14.73122824359686	-12.707957494723436	5.00601265242891
 116	1	1	-0.07752348659939227	-15.244487159964336	-11.545271456961784	4.431055451966643
 117	1	1	-0.07752348659939227	-14.724960825457746	-13.900026599421702	4.281801785972357
 118	1	3	-0.03341334926804334	-15.257200668860683	-12.97879339312466	7.442492895320136
 119	1	1	-0.08309577749885291	-15.751531454755508	-11.5748717328537	3.1318931115384556
 120	1	1	-0.08309577749885291	-15.232026618283266	-13.929529409529218	2.982645630638449
 121	1	1	-0.08360366517078825	-15.74535982924791	-12.766963114938465	2.407700341761088
 122	1	2	0.03948378820834921	-13.368478606962583	-13.39836572557495	6.493074588807358
 123	1	2	0.0845609368538026	-15.256603349015029	-10.610576185814724	4.985407224813279
 124	1	2	0.0845609368538026	-14.32951727923543	-14.81308766883088	4.718896541466504
 125	1	2	0.02763401760988875	-14.821850535285304	-12.946461970369288	8.446190554129055
 126	1	2	0.02763401760988875	-16.071124299328012	-12.247136846086082	7.400579640346672
 127	1	2	0.08367681321608178	-16.151671760518795	-10.66978158316113	2.6844381008020095
 128	1	2	0.08367681321608178	-15.22776739982351	-14.857868130086864	2.4188428114086147
 129	1	2	0.0836454600975172	-16.14035728483342	-12.790108655109389	1.3962734565878874
 130	1	3	-0.01711786324140287	-15.863182341879813	-14.371223072935784	7.230505202408426
 131	1	1	-0.05949937778868791	-14.736032126267286	-15.347000489267653	7.271681715390185
 132	1	1	-0.07752348659939227	-13.6293831403271	-15.100551300456182	8.084356397690389
 133	1	1	-0.07752348659939227	-14.788338783019277	-16.50593948469739	6.497295617547683
 134	1	3	-0.03341334926804334	-16.93151185007067	-14.673545601548184	8.27804265788297
 135	1	1	-0.08309577749885291	-12.575166612057622	-16.01321702400265	8.12258817226138
 136	1	1	-0.08309577749885291	-13.734074290324926	-17.418547031152766	6.5355930795605435
 137	1	1	-0.08360366517078825	-12.62750314087858	-17.1722155821784	7.348276639415918
 138	1	2	0.03948378820834921	-16.3212187003136	-14.370025172738245	6.233507329096843
 139	1	2	0.0845609368538026	-13.577297644456529	-14.20216917365872	8.693704077895035
 140	1	2	0.0845609368538026	-15.645562853772265	-16.71047865077839	5.861340774763571
 141	1	2	0.02763401760988875	-17.739617973385695	-13.937902317052002	8.21658127621584
 142	1	2	0.02763401760988875	-16.514817120204086	-14.637939667711963	9.290291352412664
 143	1	2	0.08367681321608178	-11.713813235824905	-15.821640892308285	8.755743269388098
 144	1	2	0.08367681321608178	-13.774979710260375	-18.321340159946683	5.933101707653524
 145	1	2	0.0836454600975172	-11.806834300385432	-17.88295469165491	7.37820359222043
 146	1	3	-0.01711786324140287	-17.5374935230898	-16.06597528135931	8.06605496497126
 147	1	1	-0.05949937778868791	-18.079850606016837	-16.09746191157049	6.677112177554578
 148	1	1	-0.07752348659939227	-18.59310952238431	-14.934775873808839	6.10215497709231
 149	1	1	-0.07752348659939227	-18.07358318787771	-17.289531016268754	5.952901311098031
 150	1	3	-0.03341334926804334	-18.605823031280657	-16.36829780997171	9.113592420445803
 151	1	1	-0.08309577749885291	-19.100153817175475	-14.964376149700758	4.802992636664122
 152	1	1	-0.08309577749885291	-18.58064898070323	-17.319033826376277	4.653745155764119
 153	1	1	-0.08360366517078825	-19.093982191667877	-16.156467531785523	4.078799866886756
 154	1	2	0.03948378820834921	-16.717100969382557	-16.787870142421998	8.16417411393303
 155	1	2	0.0845609368538026	-18.605225711435004	-14.00008060266178	6.656506749938947
 156	1	2	0.0845609368538026	-17.678139641655402	-18.20259208567794	6.389996066592179
 157	1	2	0.02763401760988875	-18.170472897705277	-16.335966387216335	10.117290079254728
 158	1	2	0.02763401760988875	-19.419746661747986	-15.636641262933136	9.071679165472341
 159	1	2	0.08367681321608178	-19.500294122938765	-14.05928600000819	4.355537625927671
 160	1	2	0.08367681321608178	-18.57638976224348	-18.247372546933924	4.0899423365342855
 161	1	2	0.0836454600975172	-19.488979647253387	-16.17961307195645	3.0673729817135555
 162	1	2	0.02763401760988875	-19.03866708343718	-17.36289043840823	8.962172639794582

Velocities

   1	0.0	0.0	0.0
   2	0.0	0.0	0.0
   3	0.0	0.0	0.0
   4	0.0	0.0	0.0
   5	0.0	0.0	0.0
   6	0.0	0.0	0.0
   7	0.0	0.0	0.0
   8	0.0	0.0	0.0
   9	0.0	0.0	0.0
  10	0.0	0.0	0.0
  11	0.0	0.0	0.0
  12	0.0	0.0	0.0
  13	0.0	0.0	0.0
  14	0.0	0.0	0.0
  15	0.0	0.0	0.0
  16	0.0	0.0	0.0
  17	0.0	0.0	0.0
  18	0.0	0.0	0.0
  19	0.0	0.0	0.0
  20	0.0	0.0	0.0
  21	0.0	0.0	0.0
  22	0.0	0.0	0.0
  23	0.0	0.0	0.0
  24	0.0	0.0	0.0
  25	0.0	0.0	0.0
  26	0.0	0.0	0.0
  27	0.0	0.0	0.0
  28	0.0	0.0	0.0
  29	0.0	0.0	0.0
  30	0.0	0.0	0.0
  31	0.0	0.0	0.0
  32	0.0	0.0	0.0
  33	0.0	0.0	0.0
  34	0.0	0.0	0.0
  35	0.0	0.0	0.0
  36	0.0	0.0	0.0
  37	0.0	0.0	0.0
  38	0.0	0.0	0.0
  39	0.0	0.0	0.0
  40	0.0	0.0	0.0
  41	0.0	0.0	0.0
  42	0.0	0.0	0.0
  43	0.0	0.0	0.0
  44	0.0	0.0	0.0
  45	0.0	0.0	0.0
  46	0.0	0.0	0.0
  47	0.0	0.0	0.0
  48	0.0	0.0	0.0
  49	0.0	0.0	0.0
  50	0.0	0.0	0.0
  51	0.0	0.0	0.0
  52	0.0	0.0	0.0
  53	0.0	0.0	0.0
  54	0.0	0.0	0.0
  55	0.0	0.0	0.0
  56	0.0	0.0	0.0
  57	0.0	0.0	0.0
  58	0.0	0.0	0.0
  59	0.0	0.0	0.0
  60	0.0	0.0	0.0
  61	0.0	0.0	0.0
  62	0.0	0.0	0.0
  63	0.0	0.0	0.0
  64	0.0	0.0	0.0
  65	0.0	0.0	0.0
  66	0.0	0.0	0.0
  67	0.0	0.0	0.0
  68	0.0	0.0	0.0
  69	0.0	0.0	0.0
  70	0.0	0.0	0.0
  71	0.0	0.0	0.0
  72	0.0	0.0	0.0
  73	0.0	0.0	0.0
  74	0.0	0.0	0.0
  75	0.0	0.0	0.0
  76	0.0	0.0	0.0
  77	0.0	0.0	0.0
  78	0.0	0.0	0.0
  79	0.0	0.0	0.0
  80	0.0	0.0	0.0
  81	0.0	0.0	0.0
  82	0.0	0.0	0.0
  83	0.0	0.0	0.0
  84	0.0	0.0	0.0
  85	0.0	0.0	0.0
  86	0.0	0.0	0.0
  87	0.0	0.0	0.0
  88	0.0	0.0	0.0
  89	0.0	0.0	0.0
  90	0.0	0.0	0.0
  91	0.0	0.0	0.0
  92	0.0	0.0	0.0
  93	0.0	0.0	0.0
  94	0.0	0.0	0.0
  95	0.0	0.0	0.0
  96	0.0	0.0	0.0
  97	0.0	0.0	0.0
  98	0.0	0.0	0.0
  99	0.0	0.0	0.0
 100	0.0	0.0	0.0
 101	0.0	0.0	0.0
 102	0.0	0.0	0.0
 103	0.0	0.0	0.0
 104	0.0	0.0	0.0
 105	0.0	0.0	0.0
 106	0.0	0.0	0.0
 107	0.0	0.0	0.0
 108	0.0	0.0	0.0
 109	0.0	0.0	0.0
 110	0.0	0.0	0.0
 111	0.0	0.0	0.0
 112	0.0	0.0	0.0
 113	0.0	0.0	0.0
 114	0.0	0.0	0.0
 115	0.0	0.0	0.0
 116	0.0	0.0	0.0
 117	0.0	0.0	0.0
 118	0.0	0.0	0.0
 119	0.0	0.0	0.0
 120	0.0	0.0	0.0
 121	0.0	0.0	0.0
 122	0.0	0.0	0.0
 123	0.0	0.0	0.0
 124	0.0	0.0	0.0
 125	0.0	0.0	0.0
 126	0.0	0.0	0.0
 127	0.0	0.0	0.0
 128	0.0	0.0	0.0
 129	0.0	0.0	0.0
 130	0.0	0.0	0.0
 131	0.0	0.0	0.0
 132	0.0	0.0	0.0
 133	0.0	0.0	0.0
 134	0.0	0.0	0.0
 135	0.0	0.0	0.0
 136	0.0	0.0	0.0
 137	0.0	0.0	0.0
 138	0.0	0.0	0.0
 139	0.0	0.0	0.0
 140	0.0	0.0	0.0
 141	0.0	0.0	0.0
 142	0.0	0.0	0.0
 143	0.0	0.0	0.0
 144	0.0	0.0	0.0
 145	0.0	0.0	0.0
 146	0.0	0.0	0.0
 147	0.0	0.0	0.0
 148	0.0	0.0	0.0
 149	0.0	0.0	0.0
 150	0.0	0.0	0.0
 151	0.0	0.0	0.0
 152	0.0	0.0	0.0
 153	0.0	0.0	0.0
 154	0.0	0.0	0.0
 155	0.0	0.0	0.0
 156	0.0	0.0	0.0
 157	0.0	0.0	0.0
 158	0.0	0.0	0.0
 159	0.0	0.0	0.0
 160	0.0	0.0	0.0
 161	0.0	0.0	0.0
 162	0.0	0.0	0.0

Bonds

   1	4	2	1
   2	4	2	10
   3	2	3	2
   4	5	4	11
   5	1	4	3
   6	5	5	12
   7	1	5	3
   8	4	6	13
   9	3	6	2
  10	1	7	4
  11	1	8	5
  12	1	9	7
  13	1	9	8
  14	4	14	6
  15	5	15	7
  16	5	16	8
  17	5	17	9
  18	4	18	26
  19	2	19	18
  20	5	20	27
  21	1	20	19
  22	5	21	28
  23	1	21	19
  24	4	22	29
  25	3	22	18
  26	1	23	20
  27	1	24	21
  28	1	25	23
  29	1	25	24
  30	4	30	22
  31	5	31	23
  32	5	32	24
  33	5	33	25
  34	3	6	18
  35	4	34	42
  36	2	35	34
  37	5	36	43
  38	1	36	35
  39	5	37	44
  40	1	37	35
  41	4	38	45
  42	3	38	34
  43	1	39	36
  44	1	40	37
  45	1	41	39
  46	1	41	40
  47	4	46	38
  48	5	47	39
  49	5	48	40
  50	5	49	41
  51	3	22	34
  52	4	50	58
  53	2	51	50
  54	5	52	59
  55	1	52	51
  56	5	53	60
  57	1	53	51
  58	4	54	61
  59	3	54	50
  60	1	55	52
  61	1	56	53
  62	1	57	55
  63	1	57	56
  64	4	62	54
  65	5	63	55
  66	5	64	56
  67	5	65	57
  68	3	38	50
  69	4	66	74
  70	2	67	66
  71	5	68	75
  72	1	68	67
  73	5	69	76
  74	1	69	67
  75	4	70	77
  76	3	70	66
  77	1	71	68
  78	1	72	69
  79	1	73	71
  80	1	73	72
  81	4	78	70
  82	5	79	71
  83	5	80	72
  84	5	81	73
  85	3	54	66
  86	4	82	90
  87	2	83	82
  88	5	84	91
  89	1	84	83
  90	5	85	92
  91	1	85	83
  92	4	86	93
  93	3	86	82
  94	1	87	84
  95	1	88	85
  96	1	89	87
  97	1	89	88
  98	4	94	86
  99	5	95	87
 100	5	96	88
 101	5	97	89
 102	3	70	82
 103	4	98	106
 104	2	99	98
 105	5	100	107
 106	1	100	99
 107	5	101	108
 108	1	101	99
 109	4	102	109
 110	3	102	98
 111	1	103	100
 112	1	104	101
 113	1	105	103
 114	1	105	104
 115	4	110	102
 116	5	111	103
 117	5	112	104
 118	5	113	105
 119	3	86	98
 120	4	114	122
 121	2	115	114
 122	5	116	123
 123	1	116	115
 124	5	117	124
 125	1	117	115
 126	4	118	125
 127	3	118	114
 128	1	119	116
 129	1	120	117
 130	1	121	119
 131	1	121	120
 132	4	126	118
 133	5	127	119
 134	5	128	120
 135	5	129	121
 136	3	102	114
 137	4	130	138
 138	2	131	130
 139	5	132	139
 140	1	132	131
 141	5	133	140
 142	1	133	131
 143	4	134	141
 144	3	134	130
 145	1	135	132
 146	1	136	133
 147	1	137	135
 148	1	137	136
 149	4	142	134
 150	5	143	135
 151	5	144	136
 152	5	145	137
 153	3	118	130
 154	4	146	154
 155	2	147	146
 156	5	148	155
 157	1	148	147
 158	5	149	156
 159	1	149	147
 160	4	150	157
 161	3	150	146
 162	1	151	148
 163	1	152	149
 164	1	153	151
 165	1	153	152
 166	4	158	150
 167	5	159	151
 168	5	160	152
 169	5	161	153
 170	4	162	150
 171	3	134	146

Angles

   1	1	1	2	10
   2	1	1	2	3
   3	1	1	2	6
   4	1	10	2	3
   5	1	10	2	6
   6	1	3	2	6
   7	2	2	3	4
   8	2	2	3	5
   9	2	4	3	5
  10	2	11	4	3
  11	2	11	4	7
  12	2	3	4	7
  13	2	12	5	3
  14	2	12	5	8
  15	2	3	5	8
  16	1	13	6	2
  17	1	13	6	14
  18	1	2	6	14
  19	2	4	7	9
  20	2	4	7	15
  21	2	9	7	15
  22	2	5	8	9
  23	2	5	8	16
  24	2	9	8	16
  25	2	7	9	8
  26	2	7	9	17
  27	2	8	9	17
  28	1	26	18	19
  29	1	26	18	22
  30	1	19	18	22
  31	2	18	19	20
  32	2	18	19	21
  33	2	20	19	21
  34	2	27	20	19
  35	2	27	20	23
  36	2	19	20	23
  37	2	28	21	19
  38	2	28	21	24
  39	2	19	21	24
  40	1	29	22	18
  41	1	29	22	30
  42	1	18	22	30
  43	2	20	23	25
  44	2	20	23	31
  45	2	25	23	31
  46	2	21	24	25
  47	2	21	24	32
  48	2	25	24	32
  49	2	23	25	24
  50	2	23	25	33
  51	2	24	25	33
  52	1	13	6	18
  53	1	2	6	18
  54	1	14	6	18
  55	1	6	18	26
  56	1	6	18	19
  57	1	6	18	22
  58	1	42	34	35
  59	1	42	34	38
  60	1	35	34	38
  61	2	34	35	36
  62	2	34	35	37
  63	2	36	35	37
  64	2	43	36	35
  65	2	43	36	39
  66	2	35	36	39
  67	2	44	37	35
  68	2	44	37	40
  69	2	35	37	40
  70	1	45	38	34
  71	1	45	38	46
  72	1	34	38	46
  73	2	36	39	41
  74	2	36	39	47
  75	2	41	39	47
  76	2	37	40	41
  77	2	37	40	48
  78	2	41	40	48
  79	2	39	41	40
  80	2	39	41	49
  81	2	40	41	49
  82	1	29	22	34
  83	1	18	22	34
  84	1	30	22	34
  85	1	22	34	42
  86	1	22	34	35
  87	1	22	34	38
  88	1	58	50	51
  89	1	58	50	54
  90	1	51	50	54
  91	2	50	51	52
  92	2	50	51	53
  93	2	52	51	53
  94	2	59	52	51
  95	2	59	52	55
  96	2	51	52	55
  97	2	60	53	51
  98	2	60	53	56
  99	2	51	53	56
 100	1	61	54	50
 101	1	61	54	62
 102	1	50	54	62
 103	2	52	55	57
 104	2	52	55	63
 105	2	57	55	63
 106	2	53	56	57
 107	2	53	56	64
 108	2	57	56	64
 109	2	55	57	56
 110	2	55	57	65
 111	2	56	57	65
 112	1	45	38	50
 113	1	34	38	50
 114	1	46	38	50
 115	1	38	50	58
 116	1	38	50	51
 117	1	38	50	54
 118	1	74	66	67
 119	1	74	66	70
 120	1	67	66	70
 121	2	66	67	68
 122	2	66	67	69
 123	2	68	67	69
 124	2	75	68	67
 125	2	75	68	71
 126	2	67	68	71
 127	2	76	69	67
 128	2	76	69	72
 129	2	67	69	72
 130	1	77	70	66
 131	1	77	70	78
 132	1	66	70	78
 133	2	68	71	73
 134	2	68	71	79
 135	2	73	71	79
 136	2	69	72	73
 137	2	69	72	80
 138	2	73	72	80
 139	2	71	73	72
 140	2	71	73	81
 141	2	72	73	81
 142	1	61	54	66
 143	1	50	54	66
 144	1	62	54	66
 145	1	54	66	74
 146	1	54	66	67
 147	1	54	66	70
 148	1	90	82	83
 149	1	90	82	86
 150	1	83	82	86
 151	2	82	83	84
 152	2	82	83	85
 153	2	84	83	85
 154	2	91	84	83
 155	2	91	84	87
 156	2	83	84	87
 157	2	92	85	83
 158	2	92	85	88
 159	2	83	85	88
 160	1	93	86	82
 161	1	93	86	94
 162	1	82	86	94
 163	2	84	87	89
 164	2	84	87	95
 165	2	89	87	95
 166	2	85	88	89
 167	2	85	88	96
 168	2	89	88	96
 169	2	87	89	88
 170	2	87	89	97
 171	2	88	89	97
 172	1	77	70	82
 173	1	66	70	82
 174	1	78	70	82
 175	1	70	82	90
 176	1	70	82	83
 177	1	70	82	86
 178	1	106	98	99
 179	1	106	98	102
 180	1	99	98	102
 181	2	98	99	100
 182	2	98	99	101
 183	2	100	99	101
 184	2	107	100	99
 185	2	107	100	103
 186	2	99	100	103
 187	2	108	101	99
 188	2	108	101	104
 189	2	99	101	104
 190	1	109	102	98
 191	1	109	102	110
 192	1	98	102	110
 193	2	100	103	105
 194	2	100	103	111
 195	2	105	103	111
 196	2	101	104	105
 197	2	101	104	112
 198	2	105	104	112
 199	2	103	105	104
 200	2	103	105	113
 201	2	104	105	113
 202	1	93	86	98
 203	1	82	86	98
 204	1	94	86	98
 205	1	86	98	106
 206	1	86	98	99
 207	1	86	98	102
 208	1	122	114	115
 209	1	122	114	118
 210	1	115	114	118
 211	2	114	115	116
 212	2	114	115	117
 213	2	116	115	117
 214	2	123	116	115
 215	2	123	116	119
 216	2	115	116	119
 217	2	124	117	115
 218	2	124	117	120
 219	2	115	117	120
 220	1	125	118	114
 221	1	125	118	126
 222	1	114	118	126
 223	2	116	119	121
 224	2	116	119	127
 225	2	121	119	127
 226	2	117	120	121
 227	2	117	120	128
 228	2	121	120	128
 229	2	119	121	120
 230	2	119	121	129
 231	2	120	121	129
 232	1	109	102	114
 233	1	98	102	114
 234	1	110	102	114
 235	1	102	114	122
 236	1	102	114	115
 237	1	102	114	118
 238	1	138	130	131
 239	1	138	130	134
 240	1	131	130	134
 241	2	130	131	132
 242	2	130	131	133
 243	2	132	131	133
 244	2	139	132	131
 245	2	139	132	135
 246	2	131	132	135
 247	2	140	133	131
 248	2	140	133	136
 249	2	131	133	136
 250	1	141	134	130
 251	1	141	134	142
 252	1	130	134	142
 253	2	132	135	137
 254	2	132	135	143
 255	2	137	135	143
 256	2	133	136	137
 257	2	133	136	144
 258	2	137	136	144
 259	2	135	137	136
 260	2	135	137	145
 261	2	136	137	145
 262	1	125	118	130
 263	1	114	118	130
 264	1	126	118	130
 265	1	118	130	138
 266	1	118	130	131
 267	1	118	130	134
 268	1	154	146	147
 269	1	154	146	150
 270	1	147	146	150
 271	2	146	147	148
 272	2	146	147	149
 273	2	148	147	149
 274	2	155	148	147
 275	2	155	148	151
 276	2	147	148	151
 277	2	156	149	147
 278	2	156	149	152
 279	2	147	149	152
 280	1	157	150	146
 281	1	157	150	158
 282	1	157	150	162
 283	1	146	150	158
 284	1	146	150	162
 285	1	158	150	162
 286	2	148	151	153
 287	2	148	151	159
 288	2	153	151	159
 289	2	149	152	153
 290	2	149	152	160
 291	2	153	152	160
 292	2	151	153	152
 293	2	151	153	161
 294	2	152	153	161
 295	1	141	134	146
 296	1	130	134	146
 297	1	142	134	146
 298	1	134	146	154
 299	1	134	146	147
 300	1	134	146	150

Dihedrals

   1	3	4	3	2	1
   2	3	4	3	2	10
   3	3	4	3	2	6
   4	3	5	3	2	1
   5	3	5	3	2	10
   6	3	5	3	2	6
   7	1	11	4	3	2
   8	1	11	4	3	5
   9	1	7	4	3	2
  10	1	7	4	3	5
  11	1	12	5	3	2
  12	1	12	5	3	4
  13	1	8	5	3	2
  14	1	8	5	3	4
  15	2	13	6	2	1
  16	2	13	6	2	10
  17	2	13	6	2	3
  18	2	14	6	2	1
  19	2	14	6	2	10
  20	2	14	6	2	3
  21	1	9	7	4	11
  22	1	9	7	4	3
  23	1	15	7	4	11
  24	1	15	7	4	3
  25	1	9	8	5	12
  26	1	9	8	5	3
  27	1	16	8	5	12
  28	1	16	8	5	3
  29	1	8	9	7	4
  30	1	8	9	7	15
  31	1	17	9	7	4
  32	1	17	9	7	15
  33	1	7	9	8	5
  34	1	7	9	8	16
  35	1	17	9	8	5
  36	1	17	9	8	16
  37	3	20	19	18	26
  38	3	20	19	18	22
  39	3	21	19	18	26
  40	3	21	19	18	22
  41	1	27	20	19	18
  42	1	27	20	19	21
  43	1	23	20	19	18
  44	1	23	20	19	21
  45	1	28	21	19	18
  46	1	28	21	19	20
  47	1	24	21	19	18
  48	1	24	21	19	20
  49	2	29	22	18	26
  50	2	29	22	18	19
  51	2	30	22	18	26
  52	2	30	22	18	19
  53	1	25	23	20	27
  54	1	25	23	20	19
  55	1	31	23	20	27
  56	1	31	23	20	19
  57	1	25	24	21	28
  58	1	25	24	21	19
  59	1	32	24	21	28
  60	1	32	24	21	19
  61	1	24	25	23	20
  62	1	24	25	23	31
  63	1	33	25	23	20
  64	1	33	25	23	31
  65	1	23	25	24	21
  66	1	23	25	24	32
  67	1	33	25	24	21
  68	1	33	25	24	32
  69	2	1	2	6	18
  70	2	10	2	6	18
  71	2	3	2	6	18
  72	3	6	18	19	20
  73	3	6	18	19	21
  74	2	6	18	22	29
  75	2	6	18	22	30
  76	2	13	6	18	26
  77	2	13	6	18	19
  78	2	13	6	18	22
  79	2	2	6	18	26
  80	2	2	6	18	19
  81	2	2	6	18	22
  82	2	14	6	18	26
  83	2	14	6	18	19
  84	2	14	6	18	22
  85	3	36	35	34	42
  86	3	36	35	34	38
  87	3	37	35	34	42
  88	3	37	35	34	38
  89	1	43	36	35	34
  90	1	43	36	35	37
  91	1	39	36	35	34
  92	1	39	36	35	37
  93	1	44	37	35	34
  94	1	44	37	35	36
  95	1	40	37	35	34
  96	1	40	37	35	36
  97	2	45	38	34	42
  98	2	45	38	34	35
  99	2	46	38	34	42
 100	2	46	38	34	35
 101	1	41	39	36	43
 102	1	41	39	36	35
 103	1	47	39	36	43
 104	1	47	39	36	35
 105	1	41	40	37	44
 106	1	41	40	37	35
 107	1	48	40	37	44
 108	1	48	40	37	35
 109	1	40	41	39	36
 110	1	40	41	39	47
 111	1	49	41	39	36
 112	1	49	41	39	47
 113	1	39	41	40	37
 114	1	39	41	40	48
 115	1	49	41	40	37
 116	1	49	41	40	48
 117	2	26	18	22	34
 118	2	19	18	22	34
 119	2	6	18	22	34
 120	3	22	34	35	36
 121	3	22	34	35	37
 122	2	22	34	38	45
 123	2	22	34	38	46
 124	2	29	22	34	42
 125	2	29	22	34	35
 126	2	29	22	34	38
 127	2	18	22	34	42
 128	2	18	22	34	35
 129	2	18	22	34	38
 130	2	30	22	34	42
 131	2	30	22	34	35
 132	2	30	22	34	38
 133	3	52	51	50	58
 134	3	52	51	50	54
 135	3	53	51	50	58
 136	3	53	51	50	54
 137	1	59	52	51	50
 138	1	59	52	51	53
 139	1	55	52	51	50
 140	1	55	52	51	53
 141	1	60	53	51	50
 142	1	60	53	51	52
 143	1	56	53	51	50
 144	1	56	53	51	52
 145	2	61	54	50	58
 146	2	61	54	50	51
 147	2	62	54	50	58
 148	2	62	54	50	51
 149	1	57	55	52	59
 150	1	57	55	52	51
 151	1	63	55	52	59
 152	1	63	55	52	51
 153	1	57	56	53	60
 154	1	57	56	53	51
 155	1	64	56	53	60
 156	1	64	56	53	51
 157	1	56	57	55	52
 158	1	56	57	55	63
 159	1	65	57	55	52
 160	1	65	57	55	63
 161	1	55	57	56	53
 162	1	55	57	56	64
 163	1	65	57	56	53
 164	1	65	57	56	64
 165	2	42	34	38	50
 166	2	35	34	38	50
 167	2	22	34	38	50
 168	3	38	50	51	52
 169	3	38	50	51	53
 170	2	38	50	54	61
 171	2	38	50	54	62
 172	2	45	38	50	58
 173	2	45	38	50	51
 174	2	45	38	50	54
 175	2	34	38	50	58
 176	2	34	38	50	51
 177	2	34	38	50	54
 178	2	46	38	50	58
 179	2	46	38	50	51
 180	2	46	38	50	54
 181	3	68	67	66	74
 182	3	68	67	66	70
 183	3	69	67	66	74
 184	3	69	67	66	70
 185	1	75	68	67	66
 186	1	75	68	67	69
 187	1	71	68	67	66
 188	1	71	68	67	69
 189	1	76	69	67	66
 190	1	76	69	67	68
 191	1	72	69	67	66
 192	1	72	69	67	68
 193	2	77	70	66	74
 194	2	77	70	66	67
 195	2	78	70	66	74
 196	2	78	70	66	67
 197	1	73	71	68	75
 198	1	73	71	68	67
 199	1	79	71	68	75
 200	1	79	71	68	67
 201	1	73	72	69	76
 202	1	73	72	69	67
 203	1	80	72	69	76
 204	1	80	72	69	67
 205	1	72	73	71	68
 206	1	72	73	71	79
 207	1	81	73	71	68
 208	1	81	73	71	79
 209	1	71	73	72	69
 210	1	71	73	72	80
 211	1	81	73	72	69
 212	1	81	73	72	80
 213	2	58	50	54	66
 214	2	51	50	54	66
 215	2	38	50	54	66
 216	3	54	66	67	68
 217	3	54	66	67	69
 218	2	54	66	70	77
 219	2	54	66	70	78
 220	2	61	54	66	74
 221	2	61	54	66	67
 222	2	61	54	66	70
 223	2	50	54	66	74
 224	2	50	54	66	67
 225	2	50	54	66	70
 226	2	62	54	66	74
 227	2	62	54	66	67
 228	2	62	54	66	70
 229	3	84	83	82	90
 230	3	84	83	82	86
 231	3	85	83	82	90
 232	3	85	83	82	86
 233	1	91	84	83	82
 234	1	91	84	83	85
 235	1	87	84	83	82
 236	1	87	84	83	85
 237	1	92	85	83	82
 238	1	92	85	83	84
 239	1	88	85	83	82
 240	1	88	85	83	84
 241	2	93	86	82	90
 242	2	93	86	82	83
 243	2	94	86	82	90
 244	2	94	86	82	83
 245	1	89	87	84	91
 246	1	89	87	84	83
 247	1	95	87	84	91
 248	1	95	87	84	83
 249	1	89	88	85	92
 250	1	89	88	85	83
 251	1	96	88	85	92
 252	1	96	88	85	83
 253	1	88	89	87	84
 254	1	88	89	87	95
 255	1	97	89	87	84
 256	1	97	89	87	95
 257	1	87	89	88	85
 258	1	87	89	88	96
 259	1	97	89	88	85
 260	1	97	89	88	96
 261	2	74	66	70	82
 262	2	67	66	70	82
 263	2	54	66	70	82
 264	3	70	82	83	84
 265	3	70	82	83	85
 266	2	70	82	86	93
 267	2	70	82	86	94
 268	2	77	70	82	90
 269	2	77	70	82	83
 270	2	77	70	82	86