pySIMM System Object

162 atoms
171 bonds
300 angles
471 dihedrals
60 impropers

3 atom types
5 bond types
2 angle types
3 dihedral types
1 improper types

-9.023921 9.023921 xlo xhi
-9.023921 9.023921 ylo yhi
-9.023921 9.023921 zlo zhi

Masses

   1	12.011	# C_R
   2	1.008	# H_
   3	12.011	# C_3

Pair Coeffs

   1	0.0951	3.47299047293	# C_R
   2	0.0152	2.84642140446	# H_
   3	0.0951	3.47299047293	# C_3

Bond Coeffs

   1	525.0	1.39	# C_R,C_R
   2	350.0	1.46	# C_R,C_3
   3	350.0	1.53	# C_3,C_3
   4	350.0	1.09	# C_3,H_
   5	350.0	1.02	# C_R,H_

Angle Coeffs

   1	50.0	109.471	# X,C_3,X
   2	50.0	120.0	# X,C_R,X

Dihedral Coeffs

   1	3.125000	-1	2	# X,C_R,C_R,X
   2	0.111111	1	3	# X,C_3,C_3,X
   3	0.083333	-1	6	# C_R,C_R,C_3,X

Improper Coeffs

   1	40.0	0.0	# C_R,X,X,X

Atoms

   1	1	2	0.03948378820834921	-5.408358792004278	-2.672858750209107	-5.610062524447498
   2	1	3	-0.04475188085129162	-5.845920304657957	-3.677816618143369	-5.55890877266675
   3	1	1	-0.05949937778868791	-4.7694400668902786	-4.6925079317115115	-5.369445013955491
   4	1	1	-0.07752348659939227	-3.620916424474861	-4.364767034130709	-4.64880039497485
   5	1	1	-0.07752348659939227	-4.911014020268865	-5.9691857111392235	-5.913136170072898
   6	1	3	-0.07289713747639255	-6.886852436540747	-3.720321968354769	-4.443240738699047
   7	1	1	-0.08309577749885291	-2.614103485289476	-5.313879755028607	-4.471866428426093
   8	1	1	-0.08309577749885291	-3.904147688309096	-6.918232017137066	-5.736149875016668
   9	1	1	-0.08360366517078825	-2.7557074029707405	-6.590600543707195	-5.015472423843032
  10	1	2	0.03948378820834921	-6.3416514165695315	-3.8337519959646906	-6.525210134885927
  11	1	2	0.0845609368538026	-3.499305090852649	-3.3741125292349405	-4.21877449405219
  12	1	2	0.0845609368538026	-5.801622903412971	-6.237624881483516	-6.4751541138164015
  13	1	2	0.02763401760988875	-7.658025046739251	-2.963332559697942	-4.617148445431712
  14	1	2	0.02763401760988875	-6.429901927404742	-3.5230905910797934	-3.4676149313227955
  15	1	2	0.08367681321608178	-1.7201459580131733	-5.058912993427205	-3.910307598111287
  16	1	2	0.08367681321608178	-4.014561639964707	-7.912595940467661	-6.158942598769549
  17	1	2	0.0836454600975172	-1.9719475414003282	-7.329677037078563	-4.877525092092789
  18	1	3	-0.01711786324140287	-7.571076513207423	-5.090808785650269	-4.3752975291127765
  19	1	1	-0.05949937778868791	-6.494596275439744	-6.105500099218412	-4.185833770401517
  20	1	1	-0.07752348659939227	-5.346072633024327	-5.777759201637609	-3.465189151420876
  21	1	1	-0.07752348659939227	-6.63617022881833	-7.382177878646123	-4.729524926518924
  22	1	3	-0.03341334926804334	-8.612008645090214	-5.13331413586167	-3.2596294951450733
  23	1	1	-0.08309577749885291	-4.339259693838942	-6.726871922535507	-3.2882551848721193
  24	1	1	-0.08309577749885291	-5.629303896858562	-8.331224184643967	-4.552538631462695
  25	1	1	-0.08360366517078825	-4.480863611520206	-8.003592711214095	-3.831861180289058
  26	1	2	0.03948378820834921	-8.066807625118997	-5.2467441634715914	-5.341598891331953
  27	1	2	0.0845609368538026	-5.2244612994021145	-4.787104696741841	-3.0351632504982162
  28	1	2	0.0845609368538026	-7.526779111962437	-7.650617048990416	-5.291542870262428
  29	1	2	0.02763401760988875	-9.383181255288719	-4.3763247272048424	-3.4335372018777384
  30	1	2	0.02763401760988875	-8.155058135954208	-4.936082758586694	-2.2840036877688217
  31	1	2	0.08367681321608178	-3.445302166562639	-6.471905160934105	-2.7266963545573133
  32	1	2	0.08367681321608178	-5.739717848514172	-9.32558810797456	-4.975331355215576
  33	1	2	0.0836454600975172	-3.697103749949794	-8.742669204585463	-3.693913848538815
  34	1	3	-0.01711786324140287	-9.296232721756889	-6.503800953157169	-3.191686285558802
  35	1	1	-0.05949937778868791	-8.21975248398921	-7.518492266725312	-3.002222526847543
  36	1	1	-0.07752348659939227	-7.071228841573792	-7.190751369144509	-2.2815779078669016
  37	1	1	-0.07752348659939227	-8.361326437367795	-8.795170046153023	-3.54591368296495
  38	1	3	-0.03341334926804334	-10.33716485363968	-6.54630630336857	-2.076018251591099
  39	1	1	-0.08309577749885291	-6.064415902388408	-8.139864090042407	-2.104643941318145
  40	1	1	-0.08309577749885291	-7.354460105408027	-9.744216352150868	-3.3689273879087205
  41	1	1	-0.08360366517078825	-6.206019820069672	-9.416584878720997	-2.6482499367350836
  42	1	2	0.03948378820834921	-9.791963833668463	-6.659736330978491	-4.15798764777798
  43	1	2	0.0845609368538026	-6.949617507951579	-6.200096864248741	-1.851552006944242
  44	1	2	0.0845609368538026	-9.251935320511903	-9.063609216497316	-4.107931626708454
  45	1	2	0.02763401760988875	-11.108337463838184	-5.789316894711742	-2.249925958323764
  46	1	2	0.02763401760988875	-9.880214344503674	-6.349074926093594	-1.1003924442148474
  47	1	2	0.08367681321608178	-5.170458375112105	-7.884897328441005	-1.543085111003339
  48	1	2	0.08367681321608178	-7.464874057063637	-10.73858027548146	-3.7917201116616015
  49	1	2	0.0836454600975172	-5.422259958499259	-10.155661372092364	-2.5103026049848407
  50	1	3	-0.01711786324140287	-11.021388930306355	-7.916793120664069	-2.008075042004828
  51	1	1	-0.05949937778868791	-9.944908692538675	-8.931484434232212	-1.8186112832935688
  52	1	1	-0.07752348659939227	-8.796385050123257	-8.60374353665141	-1.0979666643129273
  53	1	1	-0.07752348659939227	-10.086482645917261	-10.208162213659925	-2.3623024394109757
  54	1	3	-0.03341334926804334	-12.062321062189145	-7.95929847087547	-0.8924070080371248
  55	1	1	-0.08309577749885291	-7.789572110937874	-9.552856257549308	-0.9210326977641708
  56	1	1	-0.08309577749885291	-9.079616313957493	-11.157208519657768	-2.185316144354746
  57	1	1	-0.08360366517078825	-7.931176028619138	-10.829577046227897	-1.4646386931811093
  58	1	2	0.03948378820834921	-11.517120042217929	-8.072728498485391	-2.9743764042240057
  59	1	2	0.0845609368538026	-8.674773716501045	-7.613089031755641	-0.6679407633902678
  60	1	2	0.0845609368538026	-10.977091529061369	-10.476601384004216	-2.9243203831544795
  61	1	2	0.02763401760988875	-12.83349367238765	-7.202309062218642	-1.0663147147697898
  62	1	2	0.02763401760988875	-11.60537055305314	-7.762067093600494	0.0832187993391268
  63	1	2	0.08367681321608178	-6.895614583661571	-9.297889495947905	-0.3594738674493648
  64	1	2	0.08367681321608178	-9.190030265613103	-12.15157244298836	-2.608108868107627
  65	1	2	0.0836454600975172	-7.147416167048725	-11.568653539599264	-1.3266913614308664
  66	1	3	-0.01711786324140287	-12.74654513885582	-9.329785288170969	-0.8244637984508537
  67	1	1	-0.05949937778868791	-11.670064901088141	-10.344476601739114	-0.6350000397395946
  68	1	1	-0.07752348659939227	-10.521541258672723	-10.016735704158311	0.08564457924104686
  69	1	1	-0.07752348659939227	-11.811638854466727	-11.621154381166825	-1.1786911958570014
  70	1	3	-0.03341334926804334	-13.787477270738611	-9.37229063838237	0.2912042355168494
  71	1	1	-0.08309577749885291	-9.51472831948734	-10.965848425056208	0.26257854578980333
  72	1	1	-0.08309577749885291	-10.804772522506958	-12.570200687164668	-1.001704900800772
  73	1	1	-0.08360366517078825	-9.656332237168604	-12.242569213734797	-0.2810274496271351
  74	1	2	0.03948378820834921	-13.242276250767395	-9.485720665992293	-1.7907651606700314
  75	1	2	0.0845609368538026	-10.399929925050511	-9.026081199262542	0.5156704801637064
  76	1	2	0.0845609368538026	-12.702247737610834	-11.889593551511116	-1.7407091396005052
  77	1	2	0.02763401760988875	-14.558649880937116	-8.615301229725542	0.11729652878418441
  78	1	2	0.02763401760988875	-13.330526761602606	-9.175059261107393	1.2668300428931012
  79	1	2	0.08367681321608178	-8.620770792211037	-10.710881663454806	0.8241373761046094
  80	1	2	0.08367681321608178	-10.915186474162569	-13.56456461049526	-1.424497624553653
  81	1	2	0.0836454600975172	-8.87257237559819	-12.981645707106164	-0.14308011787689223
  82	1	3	-0.01711786324140287	-14.471701347405286	-10.742777455677869	0.35914744510312047
  83	1	1	-0.05949937778868791	-13.395221109637607	-11.757468769246014	0.5486112038143796
  84	1	1	-0.07752348659939227	-12.246697467222189	-11.42972787166521	1.2692558227950212
  85	1	1	-0.07752348659939227	-13.536795063016193	-13.034146548673725	0.004920047696972754
  86	1	3	-0.03341334926804334	-15.512633479288077	-10.78528280588927	1.4748154790708237
  87	1	1	-0.08309577749885291	-11.239884528036805	-12.378840592563108	1.4461897893437776
  88	1	1	-0.08309577749885291	-12.529928731056424	-13.983192854671568	0.18190634275320228
  89	1	1	-0.08360366517078825	-11.38148844571807	-13.655561381241696	0.9025837939268391
  90	1	2	0.03948378820834921	-14.96743245931686	-10.898712833499193	-0.6071539171160573
  91	1	2	0.0845609368538026	-12.125086133599977	-10.439073366769442	1.6992817237176807
  92	1	2	0.0845609368538026	-14.4274039461603	-13.302585719018015	-0.557097896046531
  93	1	2	0.02763401760988875	-16.283806089486582	-10.028293397232442	1.3009077723381588
  94	1	2	0.02763401760988875	-15.055682970152072	-10.588051428614293	2.4504412864470755
  95	1	2	0.08367681321608178	-10.345927000760502	-12.123873830961706	2.0077486196585834
  96	1	2	0.08367681321608178	-12.640342682712035	-14.97755677800216	-0.24088638099967874
  97	1	2	0.0836454600975172	-10.597728584147657	-14.394637874613064	1.040531125677082
  98	1	3	-0.01711786324140287	-16.19685755595475	-12.155769623184769	1.5427586886570948
  99	1	1	-0.05949937778868791	-15.120377318187073	-13.170460936752914	1.7322224473683538
 100	1	1	-0.07752348659939227	-13.971853675771655	-12.84272003917211	2.4528670663489955
 101	1	1	-0.07752348659939227	-15.261951271565659	-14.447138716180625	1.1885312912509471
 102	1	3	-0.03341334926804334	-17.23778968783754	-12.19827497339617	2.658426722624798
 103	1	1	-0.08309577749885291	-12.965040736586271	-13.791832760070008	2.629801032897752
 104	1	1	-0.08309577749885291	-14.25508493960589	-15.396185022178468	1.3655175863071767
 105	1	1	-0.08360366517078825	-13.106644654267535	-15.068553548748596	2.0861950374808136
 106	1	2	0.03948378820834921	-16.692588667866325	-12.311705001006093	0.5764573264379169
 107	1	2	0.0845609368538026	-13.850242342149443	-11.852065534276342	2.8828929672716552
 108	1	2	0.0845609368538026	-16.152560154709764	-14.715577886524915	0.6265133475074431
 109	1	2	0.02763401760988875	-18.008962298036046	-11.441285564739342	2.484519015892133
 110	1	2	0.02763401760988875	-16.780839178701534	-12.001043596121193	3.6340525300010498
 111	1	2	0.08367681321608178	-12.071083209309968	-13.536865998468606	3.1913598632125577
 112	1	2	0.08367681321608178	-14.3654988912615	-16.39054894550906	0.9427248625542954
 113	1	2	0.0836454600975172	-12.322884792697122	-15.807630042119964	2.2241423692310565
 114	1	3	-0.01711786324140287	-17.922013764504214	-13.568761790691669	2.7263699322110693
 115	1	1	-0.05949937778868791	-16.84553352673654	-14.583453104259814	2.9158336909223284
 116	1	1	-0.07752348659939227	-15.69700988432112	-14.25571220667901	3.63647830990297
 117	1	1	-0.07752348659939227	-16.98710748011512	-15.860130883687525	2.372142534804922
 118	1	3	-0.03341334926804334	-18.962945896387005	-13.61126714090307	3.8420379661787725
 119	1	1	-0.08309577749885291	-14.690196945135737	-15.204824927576908	3.8134122764517264
 120	1	1	-0.08309577749885291	-15.980241148155356	-16.809177189685368	2.5491288298611514
 121	1	1	-0.08360366517078825	-14.831800862817001	-16.481545716255496	3.269806281034788
 122	1	2	0.03948378820834921	-18.41774487641579	-13.724697168512993	1.7600685699918914
 123	1	2	0.0845609368538026	-15.575398550698909	-13.265057701783242	4.066504210825629
 124	1	2	0.0845609368538026	-17.87771636325923	-16.128570054031815	1.8101245910614177
 125	1	2	0.02763401760988875	-19.73411850658551	-12.854277732246242	3.6681302594461074
 126	1	2	0.02763401760988875	-18.505995387250998	-13.414035763628092	4.817663773555024
 127	1	2	0.08367681321608178	-13.796239417859434	-14.949858165975506	4.374971106766532
 128	1	2	0.08367681321608178	-16.090655099810967	-17.803541113015957	2.12633610610827
 129	1	2	0.0836454600975172	-14.048041001246588	-17.220622209626864	3.4077536127850308
 130	1	3	-0.01711786324140287	-19.64716997305368	-14.981753958198569	3.9099811757650436
 131	1	1	-0.05949937778868791	-18.570689735286003	-15.996445271766714	4.099444934476302
 132	1	1	-0.07752348659939227	-17.422166092870583	-15.66870437418591	4.820089553456944
 133	1	1	-0.07752348659939227	-18.712263688664585	-17.273123051194425	3.555753778358896
 134	1	3	-0.03341334926804334	-20.68810210493647	-15.02425930840997	5.025649209732746
 135	1	1	-0.08309577749885291	-16.415353153685203	-16.617817095083808	4.9970235200057
 136	1	1	-0.08309577749885291	-17.70539735670482	-18.222169357192268	3.7327400734151257
 137	1	1	-0.08360366517078825	-16.556957071366465	-17.894537883762393	4.453417524588762
 138	1	2	0.03948378820834921	-20.142901084965253	-15.137689336019893	2.9436798135458657
 139	1	2	0.0845609368538026	-17.30055475924837	-14.678049869290142	5.2501154543796025
 140	1	2	0.0845609368538026	-19.602872571808692	-17.541562221538715	2.993735834615392
 141	1	2	0.02763401760988875	-21.459274715134974	-14.267269899753142	4.851741503000081
 142	1	2	0.02763401760988875	-20.231151595800462	-14.827027931134992	6.0012750171089975
 143	1	2	0.08367681321608178	-15.5213956264089	-16.362850333482406	5.558582350320505
 144	1	2	0.08367681321608178	-17.81581130836043	-19.216533280522857	3.3099473496622442
 145	1	2	0.0836454600975172	-15.773197209796054	-18.633614377133764	4.591364856339005
 146	1	3	-0.01711786324140287	-21.372326181603142	-16.394746125705467	5.093592419319017
 147	1	1	-0.05949937778868791	-20.295845943835467	-17.409437439273614	5.283056178030275
 148	1	1	-0.07752348659939227	-19.147322301420047	-17.08169654169281	6.003700797010917
 149	1	1	-0.07752348659939227	-20.43741989721405	-18.68611521870132	4.73936502191287
 150	1	3	-0.03341334926804334	-22.413258313485933	-16.43725147591687	6.20926045328672
 151	1	1	-0.08309577749885291	-18.140509362234667	-18.030809262590704	6.180634763559674
 152	1	1	-0.08309577749885291	-19.430553565254286	-19.635161524699168	4.9163513169690995
 153	1	1	-0.08360366517078825	-18.28211327991593	-19.307530051269293	5.637028768142735
 154	1	2	0.03948378820834921	-21.868057293514717	-16.550681503526793	4.127291057099839
 155	1	2	0.0845609368538026	-19.025710967797835	-16.09104203679704	6.433726697933576
 156	1	2	0.0845609368538026	-21.328028780358157	-18.954554389045615	4.177347078169365
 157	1	2	0.02763401760988875	-23.184430923684438	-15.680262067260042	6.035352746554055
 158	1	2	0.02763401760988875	-21.956307804349926	-16.240020098641892	7.184886260662971
 159	1	2	0.08367681321608178	-17.246551834958364	-17.775842500989302	6.742193593874479
 160	1	2	0.08367681321608178	-19.540967516909895	-20.629525448029757	4.493558593216218
 161	1	2	0.0836454600975172	-17.498353418345516	-20.046606544640664	5.774976099892978
 162	1	2	0.02763401760988875	-22.901989796819272	-17.416170631127937	6.257791317276913

Velocities

   1	0.0	0.0	0.0
   2	0.0	0.0	0.0
   3	0.0	0.0	0.0
   4	0.0	0.0	0.0
   5	0.0	0.0	0.0
   6	0.0	0.0	0.0
   7	0.0	0.0	0.0
   8	0.0	0.0	0.0
   9	0.0	0.0	0.0
  10	0.0	0.0	0.0
  11	0.0	0.0	0.0
  12	0.0	0.0	0.0
  13	0.0	0.0	0.0
  14	0.0	0.0	0.0
  15	0.0	0.0	0.0
  16	0.0	0.0	0.0
  17	0.0	0.0	0.0
  18	0.0	0.0	0.0
  19	0.0	0.0	0.0
  20	0.0	0.0	0.0
  21	0.0	0.0	0.0
  22	0.0	0.0	0.0
  23	0.0	0.0	0.0
  24	0.0	0.0	0.0
  25	0.0	0.0	0.0
  26	0.0	0.0	0.0
  27	0.0	0.0	0.0
  28	0.0	0.0	0.0
  29	0.0	0.0	0.0
  30	0.0	0.0	0.0
  31	0.0	0.0	0.0
  32	0.0	0.0	0.0
  33	0.0	0.0	0.0
  34	0.0	0.0	0.0
  35	0.0	0.0	0.0
  36	0.0	0.0	0.0
  37	0.0	0.0	0.0
  38	0.0	0.0	0.0
  39	0.0	0.0	0.0
  40	0.0	0.0	0.0
  41	0.0	0.0	0.0
  42	0.0	0.0	0.0
  43	0.0	0.0	0.0
  44	0.0	0.0	0.0
  45	0.0	0.0	0.0
  46	0.0	0.0	0.0
  47	0.0	0.0	0.0
  48	0.0	0.0	0.0
  49	0.0	0.0	0.0
  50	0.0	0.0	0.0
  51	0.0	0.0	0.0
  52	0.0	0.0	0.0
  53	0.0	0.0	0.0
  54	0.0	0.0	0.0
  55	0.0	0.0	0.0
  56	0.0	0.0	0.0
  57	0.0	0.0	0.0
  58	0.0	0.0	0.0
  59	0.0	0.0	0.0
  60	0.0	0.0	0.0
  61	0.0	0.0	0.0
  62	0.0	0.0	0.0
  63	0.0	0.0	0.0
  64	0.0	0.0	0.0
  65	0.0	0.0	0.0
  66	0.0	0.0	0.0
  67	0.0	0.0	0.0
  68	0.0	0.0	0.0
  69	0.0	0.0	0.0
  70	0.0	0.0	0.0
  71	0.0	0.0	0.0
  72	0.0	0.0	0.0
  73	0.0	0.0	0.0
  74	0.0	0.0	0.0
  75	0.0	0.0	0.0
  76	0.0	0.0	0.0
  77	0.0	0.0	0.0
  78	0.0	0.0	0.0
  79	0.0	0.0	0.0
  80	0.0	0.0	0.0
  81	0.0	0.0	0.0
  82	0.0	0.0	0.0
  83	0.0	0.0	0.0
  84	0.0	0.0	0.0
  85	0.0	0.0	0.0
  86	0.0	0.0	0.0
  87	0.0	0.0	0.0
  88	0.0	0.0	0.0
  89	0.0	0.0	0.0
  90	0.0	0.0	0.0
  91	0.0	0.0	0.0
  92	0.0	0.0	0.0
  93	0.0	0.0	0.0
  94	0.0	0.0	0.0
  95	0.0	0.0	0.0
  96	0.0	0.0	0.0
  97	0.0	0.0	0.0
  98	0.0	0.0	0.0
  99	0.0	0.0	0.0
 100	0.0	0.0	0.0
 101	0.0	0.0	0.0
 102	0.0	0.0	0.0
 103	0.0	0.0	0.0
 104	0.0	0.0	0.0
 105	0.0	0.0	0.0
 106	0.0	0.0	0.0
 107	0.0	0.0	0.0
 108	0.0	0.0	0.0
 109	0.0	0.0	0.0
 110	0.0	0.0	0.0
 111	0.0	0.0	0.0
 112	0.0	0.0	0.0
 113	0.0	0.0	0.0
 114	0.0	0.0	0.0
 115	0.0	0.0	0.0
 116	0.0	0.0	0.0
 117	0.0	0.0	0.0
 118	0.0	0.0	0.0
 119	0.0	0.0	0.0
 120	0.0	0.0	0.0
 121	0.0	0.0	0.0
 122	0.0	0.0	0.0
 123	0.0	0.0	0.0
 124	0.0	0.0	0.0
 125	0.0	0.0	0.0
 126	0.0	0.0	0.0
 127	0.0	0.0	0.0
 128	0.0	0.0	0.0
 129	0.0	0.0	0.0
 130	0.0	0.0	0.0
 131	0.0	0.0	0.0
 132	0.0	0.0	0.0
 133	0.0	0.0	0.0
 134	0.0	0.0	0.0
 135	0.0	0.0	0.0
 136	0.0	0.0	0.0
 137	0.0	0.0	0.0
 138	0.0	0.0	0.0
 139	0.0	0.0	0.0
 140	0.0	0.0	0.0
 141	0.0	0.0	0.0
 142	0.0	0.0	0.0
 143	0.0	0.0	0.0
 144	0.0	0.0	0.0
 145	0.0	0.0	0.0
 146	0.0	0.0	0.0
 147	0.0	0.0	0.0
 148	0.0	0.0	0.0
 149	0.0	0.0	0.0
 150	0.0	0.0	0.0
 151	0.0	0.0	0.0
 152	0.0	0.0	0.0
 153	0.0	0.0	0.0
 154	0.0	0.0	0.0
 155	0.0	0.0	0.0
 156	0.0	0.0	0.0
 157	0.0	0.0	0.0
 158	0.0	0.0	0.0
 159	0.0	0.0	0.0
 160	0.0	0.0	0.0
 161	0.0	0.0	0.0
 162	0.0	0.0	0.0

Bonds

   1	4	2	1
   2	4	2	10
   3	2	3	2
   4	5	4	11
   5	1	4	3
   6	5	5	12
   7	1	5	3
   8	4	6	13
   9	3	6	2
  10	1	7	4
  11	1	8	5
  12	1	9	7
  13	1	9	8
  14	4	14	6
  15	5	15	7
  16	5	16	8
  17	5	17	9
  18	4	18	26
  19	2	19	18
  20	5	20	27
  21	1	20	19
  22	5	21	28
  23	1	21	19
  24	4	22	29
  25	3	22	18
  26	1	23	20
  27	1	24	21
  28	1	25	23
  29	1	25	24
  30	4	30	22
  31	5	31	23
  32	5	32	24
  33	5	33	25
  34	3	6	18
  35	4	34	42
  36	2	35	34
  37	5	36	43
  38	1	36	35
  39	5	37	44
  40	1	37	35
  41	4	38	45
  42	3	38	34
  43	1	39	36
  44	1	40	37
  45	1	41	39
  46	1	41	40
  47	4	46	38
  48	5	47	39
  49	5	48	40
  50	5	49	41
  51	3	22	34
  52	4	50	58
  53	2	51	50
  54	5	52	59
  55	1	52	51
  56	5	53	60
  57	1	53	51
  58	4	54	61
  59	3	54	50
  60	1	55	52
  61	1	56	53
  62	1	57	55
  63	1	57	56
  64	4	62	54
  65	5	63	55
  66	5	64	56
  67	5	65	57
  68	3	38	50
  69	4	66	74
  70	2	67	66
  71	5	68	75
  72	1	68	67
  73	5	69	76
  74	1	69	67
  75	4	70	77
  76	3	70	66
  77	1	71	68
  78	1	72	69
  79	1	73	71
  80	1	73	72
  81	4	78	70
  82	5	79	71
  83	5	80	72
  84	5	81	73
  85	3	54	66
  86	4	82	90
  87	2	83	82
  88	5	84	91
  89	1	84	83
  90	5	85	92
  91	1	85	83
  92	4	86	93
  93	3	86	82
  94	1	87	84
  95	1	88	85
  96	1	89	87
  97	1	89	88
  98	4	94	86
  99	5	95	87
 100	5	96	88
 101	5	97	89
 102	3	70	82
 103	4	98	106
 104	2	99	98
 105	5	100	107
 106	1	100	99
 107	5	101	108
 108	1	101	99
 109	4	102	109
 110	3	102	98
 111	1	103	100
 112	1	104	101
 113	1	105	103
 114	1	105	104
 115	4	110	102
 116	5	111	103
 117	5	112	104
 118	5	113	105
 119	3	86	98
 120	4	114	122
 121	2	115	114
 122	5	116	123
 123	1	116	115
 124	5	117	124
 125	1	117	115
 126	4	118	125
 127	3	118	114
 128	1	119	116
 129	1	120	117
 130	1	121	119
 131	1	121	120
 132	4	126	118
 133	5	127	119
 134	5	128	120
 135	5	129	121
 136	3	102	114
 137	4	130	138
 138	2	131	130
 139	5	132	139
 140	1	132	131
 141	5	133	140
 142	1	133	131
 143	4	134	141
 144	3	134	130
 145	1	135	132
 146	1	136	133
 147	1	137	135
 148	1	137	136
 149	4	142	134
 150	5	143	135
 151	5	144	136
 152	5	145	137
 153	3	118	130
 154	4	146	154
 155	2	147	146
 156	5	148	155
 157	1	148	147
 158	5	149	156
 159	1	149	147
 160	4	150	157
 161	3	150	146
 162	1	151	148
 163	1	152	149
 164	1	153	151
 165	1	153	152
 166	4	158	150
 167	5	159	151
 168	5	160	152
 169	5	161	153
 170	4	162	150
 171	3	134	146

Angles

   1	1	1	2	10
   2	1	1	2	3
   3	1	1	2	6
   4	1	10	2	3
   5	1	10	2	6
   6	1	3	2	6
   7	2	2	3	4
   8	2	2	3	5
   9	2	4	3	5
  10	2	11	4	3
  11	2	11	4	7
  12	2	3	4	7
  13	2	12	5	3
  14	2	12	5	8
  15	2	3	5	8
  16	1	13	6	2
  17	1	13	6	14
  18	1	2	6	14
  19	2	4	7	9
  20	2	4	7	15
  21	2	9	7	15
  22	2	5	8	9
  23	2	5	8	16
  24	2	9	8	16
  25	2	7	9	8
  26	2	7	9	17
  27	2	8	9	17
  28	1	26	18	19
  29	1	26	18	22
  30	1	19	18	22
  31	2	18	19	20
  32	2	18	19	21
  33	2	20	19	21
  34	2	27	20	19
  35	2	27	20	23
  36	2	19	20	23
  37	2	28	21	19
  38	2	28	21	24
  39	2	19	21	24
  40	1	29	22	18
  41	1	29	22	30
  42	1	18	22	30
  43	2	20	23	25
  44	2	20	23	31
  45	2	25	23	31
  46	2	21	24	25
  47	2	21	24	32
  48	2	25	24	32
  49	2	23	25	24
  50	2	23	25	33
  51	2	24	25	33
  52	1	13	6	18
  53	1	2	6	18
  54	1	14	6	18
  55	1	6	18	26
  56	1	6	18	19
  57	1	6	18	22
  58	1	42	34	35
  59	1	42	34	38
  60	1	35	34	38
  61	2	34	35	36
  62	2	34	35	37
  63	2	36	35	37
  64	2	43	36	35
  65	2	43	36	39
  66	2	35	36	39
  67	2	44	37	35
  68	2	44	37	40
  69	2	35	37	40
  70	1	45	38	34
  71	1	45	38	46
  72	1	34	38	46
  73	2	36	39	41
  74	2	36	39	47
  75	2	41	39	47
  76	2	37	40	41
  77	2	37	40	48
  78	2	41	40	48
  79	2	39	41	40
  80	2	39	41	49
  81	2	40	41	49
  82	1	29	22	34
  83	1	18	22	34
  84	1	30	22	34
  85	1	22	34	42
  86	1	22	34	35
  87	1	22	34	38
  88	1	58	50	51
  89	1	58	50	54
  90	1	51	50	54
  91	2	50	51	52
  92	2	50	51	53
  93	2	52	51	53
  94	2	59	52	51
  95	2	59	52	55
  96	2	51	52	55
  97	2	60	53	51
  98	2	60	53	56
  99	2	51	53	56
 100	1	61	54	50
 101	1	61	54	62
 102	1	50	54	62
 103	2	52	55	57
 104	2	52	55	63
 105	2	57	55	63
 106	2	53	56	57
 107	2	53	56	64
 108	2	57	56	64
 109	2	55	57	56
 110	2	55	57	65
 111	2	56	57	65
 112	1	45	38	50
 113	1	34	38	50
 114	1	46	38	50
 115	1	38	50	58
 116	1	38	50	51
 117	1	38	50	54
 118	1	74	66	67
 119	1	74	66	70
 120	1	67	66	70
 121	2	66	67	68
 122	2	66	67	69
 123	2	68	67	69
 124	2	75	68	67
 125	2	75	68	71
 126	2	67	68	71
 127	2	76	69	67
 128	2	76	69	72
 129	2	67	69	72
 130	1	77	70	66
 131	1	77	70	78
 132	1	66	70	78
 133	2	68	71	73
 134	2	68	71	79
 135	2	73	71	79
 136	2	69	72	73
 137	2	69	72	80
 138	2	73	72	80
 139	2	71	73	72
 140	2	71	73	81
 141	2	72	73	81
 142	1	61	54	66
 143	1	50	54	66
 144	1	62	54	66
 145	1	54	66	74
 146	1	54	66	67
 147	1	54	66	70
 148	1	90	82	83
 149	1	90	82	86
 150	1	83	82	86
 151	2	82	83	84
 152	2	82	83	85
 153	2	84	83	85
 154	2	91	84	83
 155	2	91	84	87
 156	2	83	84	87
 157	2	92	85	83
 158	2	92	85	88
 159	2	83	85	88
 160	1	93	86	82
 161	1	93	86	94
 162	1	82	86	94
 163	2	84	87	89
 164	2	84	87	95
 165	2	89	87	95
 166	2	85	88	89
 167	2	85	88	96
 168	2	89	88	96
 169	2	87	89	88
 170	2	87	89	97
 171	2	88	89	97
 172	1	77	70	82
 173	1	66	70	82
 174	1	78	70	82
 175	1	70	82	90
 176	1	70	82	83
 177	1	70	82	86
 178	1	106	98	99
 179	1	106	98	102
 180	1	99	98	102
 181	2	98	99	100
 182	2	98	99	101
 183	2	100	99	101
 184	2	107	100	99
 185	2	107	100	103
 186	2	99	100	103
 187	2	108	101	99
 188	2	108	101	104
 189	2	99	101	104
 190	1	109	102	98
 191	1	109	102	110
 192	1	98	102	110
 193	2	100	103	105
 194	2	100	103	111
 195	2	105	103	111
 196	2	101	104	105
 197	2	101	104	112
 198	2	105	104	112
 199	2	103	105	104
 200	2	103	105	113
 201	2	104	105	113
 202	1	93	86	98
 203	1	82	86	98
 204	1	94	86	98
 205	1	86	98	106
 206	1	86	98	99
 207	1	86	98	102
 208	1	122	114	115
 209	1	122	114	118
 210	1	115	114	118
 211	2	114	115	116
 212	2	114	115	117
 213	2	116	115	117
 214	2	123	116	115
 215	2	123	116	119
 216	2	115	116	119
 217	2	124	117	115
 218	2	124	117	120
 219	2	115	117	120
 220	1	125	118	114
 221	1	125	118	126
 222	1	114	118	126
 223	2	116	119	121
 224	2	116	119	127
 225	2	121	119	127
 226	2	117	120	121
 227	2	117	120	128
 228	2	121	120	128
 229	2	119	121	120
 230	2	119	121	129
 231	2	120	121	129
 232	1	109	102	114
 233	1	98	102	114
 234	1	110	102	114
 235	1	102	114	122
 236	1	102	114	115
 237	1	102	114	118
 238	1	138	130	131
 239	1	138	130	134
 240	1	131	130	134
 241	2	130	131	132
 242	2	130	131	133
 243	2	132	131	133
 244	2	139	132	131
 245	2	139	132	135
 246	2	131	132	135
 247	2	140	133	131
 248	2	140	133	136
 249	2	131	133	136
 250	1	141	134	130
 251	1	141	134	142
 252	1	130	134	142
 253	2	132	135	137
 254	2	132	135	143
 255	2	137	135	143
 256	2	133	136	137
 257	2	133	136	144
 258	2	137	136	144
 259	2	135	137	136
 260	2	135	137	145
 261	2	136	137	145
 262	1	125	118	130
 263	1	114	118	130
 264	1	126	118	130
 265	1	118	130	138
 266	1	118	130	131
 267	1	118	130	134
 268	1	154	146	147
 269	1	154	146	150
 270	1	147	146	150
 271	2	146	147	148
 272	2	146	147	149
 273	2	148	147	149
 274	2	155	148	147
 275	2	155	148	151
 276	2	147	148	151
 277	2	156	149	147
 278	2	156	149	152
 279	2	147	149	152
 280	1	157	150	146
 281	1	157	150	158
 282	1	157	150	162
 283	1	146	150	158
 284	1	146	150	162
 285	1	158	150	162
 286	2	148	151	153
 287	2	148	151	159
 288	2	153	151	159
 289	2	149	152	153
 290	2	149	152	160
 291	2	153	152	160
 292	2	151	153	152
 293	2	151	153	161
 294	2	152	153	161
 295	1	141	134	146
 296	1	130	134	146
 297	1	142	134	146
 298	1	134	146	154
 299	1	134	146	147
 300	1	134	146	150

Dihedrals

   1	3	4	3	2	1
   2	3	4	3	2	10
   3	3	4	3	2	6
   4	3	5	3	2	1
   5	3	5	3	2	10
   6	3	5	3	2	6
   7	1	11	4	3	2
   8	1	11	4	3	5
   9	1	7	4	3	2
  10	1	7	4	3	5
  11	1	12	5	3	2
  12	1	12	5	3	4
  13	1	8	5	3	2
  14	1	8	5	3	4
  15	2	13	6	2	1
  16	2	13	6	2	10
  17	2	13	6	2	3
  18	2	14	6	2	1
  19	2	14	6	2	10
  20	2	14	6	2	3
  21	1	9	7	4	11
  22	1	9	7	4	3
  23	1	15	7	4	11
  24	1	15	7	4	3
  25	1	9	8	5	12
  26	1	9	8	5	3
  27	1	16	8	5	12
  28	1	16	8	5	3
  29	1	8	9	7	4
  30	1	8	9	7	15
  31	1	17	9	7	4
  32	1	17	9	7	15
  33	1	7	9	8	5
  34	1	7	9	8	16
  35	1	17	9	8	5
  36	1	17	9	8	16
  37	3	20	19	18	26
  38	3	20	19	18	22
  39	3	21	19	18	26
  40	3	21	19	18	22
  41	1	27	20	19	18
  42	1	27	20	19	21
  43	1	23	20	19	18
  44	1	23	20	19	21
  45	1	28	21	19	18
  46	1	28	21	19	20
  47	1	24	21	19	18
  48	1	24	21	19	20
  49	2	29	22	18	26
  50	2	29	22	18	19
  51	2	30	22	18	26
  52	2	30	22	18	19
  53	1	25	23	20	27
  54	1	25	23	20	19
  55	1	31	23	20	27
  56	1	31	23	20	19
  57	1	25	24	21	28
  58	1	25	24	21	19
  59	1	32	24	21	28
  60	1	32	24	21	19
  61	1	24	25	23	20
  62	1	24	25	23	31
  63	1	33	25	23	20
  64	1	33	25	23	31
  65	1	23	25	24	21
  66	1	23	25	24	32
  67	1	33	25	24	21
  68	1	33	25	24	32
  69	2	1	2	6	18
  70	2	10	2	6	18
  71	2	3	2	6	18
  72	3	6	18	19	20
  73	3	6	18	19	21
  74	2	6	18	22	29
  75	2	6	18	22	30
  76	2	13	6	18	26
  77	2	13	6	18	19
  78	2	13	6	18	22
  79	2	2	6	18	26
  80	2	2	6	18	19
  81	2	2	6	18	22
  82	2	14	6	18	26
  83	2	14	6	18	19
  84	2	14	6	18	22
  85	3	36	35	34	42
  86	3	36	35	34	38
  87	3	37	35	34	42
  88	3	37	35	34	38
  89	1	43	36	35	34
  90	1	43	36	35	37
  91	1	39	36	35	34
  92	1	39	36	35	37
  93	1	44	37	35	34
  94	1	44	37	35	36
  95	1	40	37	35	34
  96	1	40	37	35	36
  97	2	45	38	34	42
  98	2	45	38	34	35
  99	2	46	38	34	42
 100	2	46	38	34	35
 101	1	41	39	36	43
 102	1	41	39	36	35
 103	1	47	39	36	43
 104	1	47	39	36	35
 105	1	41	40	37	44
 106	1	41	40	37	35
 107	1	48	40	37	44
 108	1	48	40	37	35
 109	1	40	41	39	36
 110	1	40	41	39	47
 111	1	49	41	39	36
 112	1	49	41	39	47
 113	1	39	41	40	37
 114	1	39	41	40	48
 115	1	49	41	40	37
 116	1	49	41	40	48
 117	2	26	18	22	34
 118	2	19	18	22	34
 119	2	6	18	22	34
 120	3	22	34	35	36
 121	3	22	34	35	37
 122	2	22	34	38	45
 123	2	22	34	38	46
 124	2	29	22	34	42
 125	2	29	22	34	35
 126	2	29	22	34	38
 127	2	18	22	34	42
 128	2	18	22	34	35
 129	2	18	22	34	38
 130	2	30	22	34	42
 131	2	30	22	34	35
 132	2	30	22	34	38
 133	3	52	51	50	58
 134	3	52	51	50	54
 135	3	53	51	50	58
 136	3	53	51	50	54
 137	1	59	52	51	50
 138	1	59	52	51	53
 139	1	55	52	51	50
 140	1	55	52	51	53
 141	1	60	53	51	50
 142	1	60	53	51	52
 143	1	56	53	51	50
 144	1	56	53	51	52
 145	2	61	54	50	58
 146	2	61	54	50	51
 147	2	62	54	50	58
 148	2	62	54	50	51
 149	1	57	55	52	59
 150	1	57	55	52	51
 151	1	63	55	52	59
 152	1	63	55	52	51
 153	1	57	56	53	60
 154	1	57	56	53	51
 155	1	64	56	53	60
 156	1	64	56	53	51
 157	1	56	57	55	52
 158	1	56	57	55	63
 159	1	65	57	55	52
 160	1	65	57	55	63
 161	1	55	57	56	53
 162	1	55	57	56	64
 163	1	65	57	56	53
 164	1	65	57	56	64
 165	2	42	34	38	50
 166	2	35	34	38	50
 167	2	22	34	38	50
 168	3	38	50	51	52
 169	3	38	50	51	53
 170	2	38	50	54	61
 171	2	38	50	54	62
 172	2	45	38	50	58
 173	2	45	38	50	51
 174	2	45	38	50	54
 175	2	34	38	50	58
 176	2	34	38	50	51
 177	2	34	38	50	54
 178	2	46	38	50	58
 179	2	46	38	50	51
 180	2	46	38	50	54
 181	3	68	67	66	74
 182	3	68	67	66	70
 183	3	69	67	66	74
 184	3	69	67	66	70
 185	1	75	68	67	66
 186	1	75	68	67	69
 187	1	71	68	67	66
 188	1	71	68	67	69
 189	1	76	69	67	66
 190	1	76	69	67	68
 191	1	72	69	67	66
 192	1	72	69	67	68
 193	2	77	70	66	74
 194	2	77	70	66	67
 195	2	78	70	66	74
 196	2	78	70	66	67
 197	1	73	71	68	75
 198	1	73	71	68	67
 199	1	79	71	68	75
 200	1	79	71	68	67
 201	1	73	72	69	76
 202	1	73	72	69	67
 203	1	80	72	69	76
 204	1	80	72	69	67
 205	1	72	73	71	68
 206	1	72	73	71	79
 207	1	81	73	71	68
 208	1	81	73	71	79
 209	1	71	73	72	69
 210	1	71	73	72	80
 211	1	81	73	72	69
 212	1	81	73	72	80
 213	2	58	50	54	66
 214	2	51	50	54	66
 215	2	38	50	54	66
 216	3	54	66	67	68
 217	3	54	66	67	69
 218	2	54	66	70	77
 219	2	54	66	70	78
 220	2	61	54	66	74
 221	2	61	54	66	67
 222	2	61	54	66	70
 223	2	50	54	66	74
 224	2	50	54	66	67
 225	2	50	54	66	70
 226	2	62	54	66	74
 227	2	62	54	66	67
 228	2	62	54	66	70
 229	3	84	83	82	90
 230	3	84	83	82	86
 231	3	85	83	82	90
 232	3	85	83	82	86
 233	1	91	84	83	82
 234	1	91	84	83	85
 235	1	87	84	83	82
 236	1	87	84	83	85
 237	1	92	85	83	82
 238	1	92	85	83	84
 239	1	88	85	83	82
 240	1	88	85	83	84
 241	2	93	86	82	90
 242	2	93	86	82	83
 243	2	94	86	82	90
 244	2	94	86	82	83
 245	1	89	87	84	91
 246	1	89	87	84	83
 247	1	95	87	84	91
 248	1	95	87	84	83
 249	1	89	88	85	92
 250	1	89	88	85	83
 251	1	96	88	85	92
 252	1	96	88	85	83
 253	1	88	89	87	84
 254	1	88	89	87	95
 255	1	97	89	87	84
 256	1	97	89	87	95
 257	1	87	89	88	85
 258	1	87	89	88	96
 259	1	97	89	88	85
 260	1	97	89	88	96
 261	2	74	66	70	82
 262	2	67	66	70	82
 263	2	54	66	70	82
 264	3	70	82	83	84