LAMMPS (22 Aug 2018)
  using 4 OpenMP thread(s) per MPI task
log relax.log append
