pySIMM System Object

162 atoms
171 bonds
300 angles
471 dihedrals
60 impropers

3 atom types
5 bond types
2 angle types
3 dihedral types
1 improper types

-9.023921 9.023921 xlo xhi
-9.023921 9.023921 ylo yhi
-9.023921 9.023921 zlo zhi

Masses

   1	12.011	# C_R
   2	1.008	# H_
   3	12.011	# C_3

Pair Coeffs

   1	0.0951	3.47299047293	# C_R
   2	0.0152	2.84642140446	# H_
   3	0.0951	3.47299047293	# C_3

Bond Coeffs

   1	525.0	1.39	# C_R,C_R
   2	350.0	1.46	# C_R,C_3
   3	350.0	1.53	# C_3,C_3
   4	350.0	1.09	# C_3,H_
   5	350.0	1.02	# C_R,H_

Angle Coeffs

   1	50.0	109.471	# X,C_3,X
   2	50.0	120.0	# X,C_R,X

Dihedral Coeffs

   1	3.125000	-1	2	# X,C_R,C_R,X
   2	0.111111	1	3	# X,C_3,C_3,X
   3	0.083333	-1	6	# C_R,C_R,C_3,X

Improper Coeffs

   1	40.0	0.0	# C_R,X,X,X

Atoms

   1	1	2	0.03948378820834921	3.818699878062686	3.1471761768179585	-0.8038462609461798
   2	1	3	-0.04475188085129162	3.3401199238519923	2.1972810009465693	-1.0734338761734976
   3	1	1	-0.05949937778868791	2.0479004378891457	2.05315561361484	-0.34288521056360455
   4	1	1	-0.07752348659939227	1.291329419898945	3.183671769349478	-0.03404409225153904
   5	1	1	-0.07752348659939227	1.5960171187922214	0.7878659969493154	0.031805410990172756
   6	1	3	-0.07289713747639255	3.1612662374266973	2.1326893107809486	-2.5879967974196343
   7	1	1	-0.08309577749885291	0.08283681791096931	3.0486898049034123	0.6494164993077796
   8	1	1	-0.08309577749885291	0.38751191449688216	0.6529831977263714	0.7152632748448975
   9	1	1	-0.08360366517078825	-0.3691099707015324	1.7833900151689526	1.024030517145845
  10	1	2	0.03948378820834921	4.039267293454999	1.4136104384812578	-0.7558541143773463
  11	1	2	0.0845609368538026	1.6315850922760657	4.174874805831108	-0.32188182064167037
  12	1	2	0.0845609368538026	2.1751873341679815	-0.10090526650903087	-0.20432049371376199
  13	1	2	0.02763401760988875	4.128971339869739	2.2419268170062905	-3.08759468766675
  14	1	2	0.02763401760988875	2.502362405012142	2.9321324109329865	-2.9433644510527555
  15	1	2	0.08367681321608178	-0.5065038347245125	3.9288116661629022	0.8893738590288687
  16	1	2	0.08367681321608178	0.03523326567759377	-0.3322919531552335	1.006531485676919
  17	1	2	0.0836454600975172	-1.3101454442087448	1.6782291179441289	1.5559482488449552
  18	1	3	-0.01711786324140287	2.5516710776764424	0.7929832647854849	-3.0176413420518946
  19	1	1	-0.05949937778868791	3.4537055376909906	-0.27916830248696456	-2.5066329959933435
  20	1	1	-0.07752348659939227	4.826199370071851	-0.04910759474552573	-2.410809873366272
  21	1	1	-0.07752348659939227	2.924837592606381	-1.511898447856794	-2.1242398797393247
  22	1	3	-0.03341334926804334	2.3728173912511483	0.7283915746198639	-4.532204263298031
  23	1	1	-0.08309577749885291	5.669691041945721	-1.0519449550820625	-1.9326551827141045
  24	1	1	-0.08309577749885291	3.76840795753612	-2.514675254949166	-1.6460970511097055
  25	1	1	-0.08360366517078825	5.140846267550468	-2.2847219166717085	-1.5503473387341067
  26	1	2	0.03948378820834921	1.5705636274467025	0.7199508053688126	-2.5319480942346657
  27	1	2	0.0845609368538026	5.250836105412947	0.9064077604331482	-2.7070901275457064
  28	1	2	0.0845609368538026	1.8576113747646232	-1.7043514955553403	-2.19563991043064
  29	1	2	0.02763401760988875	1.706232664162548	1.5288269935556458	-4.868287573989466
  30	1	2	0.02763401760988875	3.331330383259612	0.8437729417656303	-5.049398312245383
  31	1	2	0.08367681321608178	6.738347028178877	-0.873047439320306	-1.8585843251362926
  32	1	2	0.08367681321608178	3.3567688697993097	-3.4748448151723963	-1.3488896873585101
  33	1	2	0.0836454600975172	5.797575936786728	-3.0656331683990006	-1.178289804916355
  34	1	3	-0.01711786324140287	1.7632222315008947	-0.6113144713756002	-4.961848807930293
  35	1	1	-0.05949937778868791	0.47100274553804633	-0.7554398587073274	-4.2313001423204
  36	1	1	-0.07752348659939227	-0.28556827245215466	0.3750762970273098	-3.9224590240083375
  37	1	1	-0.07752348659939227	0.01911942644112008	-2.020729475372852	-3.856609520766624
  38	1	3	-0.03341334926804334	1.5843685450756002	-0.675906161541221	-6.476411729176429
  39	1	1	-0.08309577749885291	-1.494060874440132	0.24009433258124524	-3.2389984324490197
  40	1	1	-0.08309577749885291	-1.1893857778542185	-2.1556122745957955	-3.1731516569119
  41	1	1	-0.08360366517078825	-1.946007663052633	-1.0252054571532145	-2.8643844146109543
  42	1	2	0.03948378820834921	2.4623696011038985	-1.394985033840911	-4.64426904613414
  43	1	2	0.0845609368538026	0.054687399924967295	1.3662793335089396	-4.210296752398469
  44	1	2	0.0845609368538026	0.5982896418168813	-2.9095007388311993	-4.092735425470558
  45	1	2	0.02763401760988875	2.552073647518643	-0.5666686553158798	-6.976009619423544
  46	1	2	0.02763401760988875	0.925464712661046	0.1235369386108165	-6.831779382809553
  47	1	2	0.08367681321608178	-2.08340152707561	1.1202161938407347	-2.9990410727279317
  48	1	2	0.08367681321608178	-1.5416644266735062	-3.140887425477401	-2.8818834460798786
  49	1	2	0.0836454600975172	-2.8870431365598463	-1.1303663543780367	-2.332466682911845
  50	1	3	-0.01711786324140287	0.9747733853253461	-2.0156122075366847	-6.906056273808692
  51	1	1	-0.05949937778868791	1.8768078453398949	-3.087763774809134	-6.395047927750141
  52	1	1	-0.07752348659939227	3.2493016777207564	-2.8577030670676957	-6.299224805123071
  53	1	1	-0.07752348659939227	1.347939900255286	-4.320493920178965	-6.012654811496123
  54	1	3	-0.03341334926804334	0.7959196989000511	-2.0802038977023054	-8.420619195054828
  55	1	1	-0.08309577749885291	4.092793349594627	-3.860540427404234	-5.8210701144709045
  56	1	1	-0.08309577749885291	2.1915102651850242	-5.3232707272713355	-5.534511982866504
  57	1	1	-0.08360366517078825	3.563948575199374	-5.093317388993879	-5.438762270490905
  58	1	2	0.03948378820834921	-0.006334064904392811	-2.0886446669533574	-6.420363025991462
  59	1	2	0.0845609368538026	3.6739384130618515	-1.9021877118890214	-6.595505059302505
  60	1	2	0.0845609368538026	0.28071368241352807	-4.512946967877511	-6.084054842187437
  61	1	2	0.02763401760988875	0.12933497181145093	-1.279768478766524	-8.756702505746262
  62	1	2	0.02763401760988875	1.7544326909085144	-1.9648225305565388	-8.93781324400218
  63	1	2	0.08367681321608178	5.161449335827781	-3.681642911642475	-5.7469992568930905
  64	1	2	0.08367681321608178	1.779871177448213	-6.283440287494566	-5.237304619115308
  65	1	2	0.0836454600975172	4.220678244435634	-5.87422864072117	-5.066704736673155
  66	1	3	-0.01711786324140287	0.18632453914979752	-3.4199099436977694	-8.85026373968709
  67	1	1	-0.05949937778868791	-1.1058949468130508	-3.5640353310294977	-8.119715074077197
  68	1	1	-0.07752348659939227	-1.8624659648032527	-2.4335191752948617	-7.81087395576513
  69	1	1	-0.07752348659939227	-1.5577782659099748	-4.8293249476950235	-7.745024452523421
  70	1	3	-0.03341334926804334	0.007470852724502541	-3.48450163386339	-10.364826660933227
  71	1	1	-0.08309577749885291	-3.0709585667912296	-2.5685011397409276	-7.1274133642058155
  72	1	1	-0.08309577749885291	-2.766283470205312	-4.964207746917968	-7.061566588668697
  73	1	1	-0.08360366517078825	-3.5229053554037284	-3.833800929475389	-6.752799346367749
  74	1	2	0.03948378820834921	0.885471908752802	-4.20358050616308	-8.532683977890938
  75	1	2	0.0845609368538026	-1.5222102924261316	-1.442316138813232	-8.098711684155264
  76	1	2	0.0845609368538026	-0.9786080505342132	-5.71809621115337	-7.981150357227355
  77	1	2	0.02763401760988875	0.9751759551675454	-3.375264127638048	-10.86442455118034
  78	1	2	0.02763401760988875	-0.6514329796900533	-2.685058533711353	-10.720194314566351
  79	1	2	0.08367681321608178	-3.660299219426707	-1.68837927848144	-6.887456004484725
  80	1	2	0.08367681321608178	-3.118562119024599	-5.949482897799574	-6.770298377836675
  81	1	2	0.0836454600975172	-4.463940828910939	-3.938961826700213	-6.22088161466864
  82	1	3	-0.01711786324140287	-0.6021243070257515	-4.824207679858854	-10.79447120556549
  83	1	1	-0.05949937778868791	0.2999101529887982	-5.896359247131303	-10.283462859506939
  84	1	1	-0.07752348659939227	1.6724039853696593	-5.666298539389865	-10.187639736879868
  85	1	1	-0.07752348659939227	-0.2289577920958119	-7.1290893925011325	-9.90106974325292
  86	1	3	-0.03341334926804334	-0.7809779934510465	-4.888799370024475	-12.309034126811627
  87	1	1	-0.08309577749885291	2.5158956572435294	-6.669135899726402	-9.709485046227703
  88	1	1	-0.08309577749885291	0.6146125728339262	-8.131866199593505	-9.422926914623304
  89	1	1	-0.08360366517078825	1.9870508828482745	-7.901912861316048	-9.327177202247706
  90	1	2	0.03948378820834921	-1.5832317572554901	-4.897240139275527	-10.30877795774826
  91	1	2	0.0845609368538026	2.0970407207107535	-4.7107831842111905	-10.483919991059304
  92	1	2	0.0845609368538026	-1.2961840099375692	-7.32154244019968	-9.972469773944235
  93	1	2	0.02763401760988875	-1.4475627205396455	-4.088363951088693	-12.645117437503059
  94	1	2	0.02763401760988875	0.1775349985574166	-4.773418002878708	-12.82622817575898
  95	1	2	0.08367681321608178	3.584551643476683	-6.490238383964644	-9.635414188649888
  96	1	2	0.08367681321608178	0.20297348509711588	-9.092035759816733	-9.125719550872107
  97	1	2	0.0836454600975172	2.643780552084535	-8.682824113043338	-8.955119668429953
  98	1	3	-0.01711786324140287	-1.3905731532012997	-6.228505416019939	-12.738678671443889
  99	1	1	-0.05949937778868791	-2.682792639164148	-6.372630803351669	-12.008130005833996
 100	1	1	-0.07752348659939227	-3.4393636571543507	-5.242114647617033	-11.699288887521929
 101	1	1	-0.07752348659939227	-3.1346759582610693	-7.637920420017192	-11.633439384280221
 102	1	3	-0.03341334926804334	-1.5694268396265942	-6.293097106185559	-14.253241592690026
 103	1	1	-0.08309577749885291	-4.647856259142326	-5.3770966120631005	-11.015828295962615
 104	1	1	-0.08309577749885291	-4.343181162556407	-7.772803219240142	-10.949981520425496
 105	1	1	-0.08360366517078825	-5.0998030477548255	-6.642396401797562	-10.641214278124549
 106	1	2	0.03948378820834921	-0.6914257835982949	-7.0121759784852475	-12.421098909647737
 107	1	2	0.0845609368538026	-3.0991079847772305	-4.250911611135404	-11.987126615912063
 108	1	2	0.0845609368538026	-2.5555057428853094	-8.52669168347554	-11.869565288984154
 109	1	2	0.02763401760988875	-0.6017217371835528	-6.183859599960216	-14.752839482937139
 110	1	2	0.02763401760988875	-2.228330672041151	-5.493654006033524	-14.60860924632315
 111	1	2	0.08367681321608178	-5.237196911777808	-4.496974750803613	-10.775870936241523
 112	1	2	0.08367681321608178	-4.6954598113756925	-8.758078370121748	-10.658713309593475
 113	1	2	0.0836454600975172	-6.0408385212620335	-6.747557299022386	-10.109296546425439
 114	1	3	-0.01711786324140287	-2.1790219993768467	-7.632803152181023	-14.682886137322289
 115	1	1	-0.05949937778868791	-1.2769875393622985	-8.704954719453475	-14.171877791263737
 116	1	1	-0.07752348659939227	0.0955062930185635	-8.474894011712035	-14.076054668636663
 117	1	1	-0.07752348659939227	-1.8058554844469077	-9.9376848648233	-13.789484675009719
 118	1	3	-0.03341334926804334	-2.357875685802142	-7.697394842346644	-16.197449058568424
 119	1	1	-0.08309577749885291	0.9389979648924314	-9.47773137204857	-13.597899977984502
 120	1	1	-0.08309577749885291	-0.9622851195171718	-10.940461671915674	-13.311341846380099
 121	1	1	-0.08360366517078825	0.41015319049717913	-10.710508333638217	-13.2155921340045
 122	1	2	0.03948378820834921	-3.1601294496065866	-7.705835611597696	-14.19719288950506
 123	1	2	0.0845609368538026	0.5201430283596569	-7.519378656533362	-14.3723349228161
 124	1	2	0.0845609368538026	-2.873081702288665	-10.13013791252185	-13.860884705701034
 125	1	2	0.02763401760988875	-3.0244604128907406	-6.896959423410863	-16.533532369259856
 126	1	2	0.02763401760988875	-1.3993626937936798	-7.582013475200879	-16.714643107515776
 127	1	2	0.08367681321608178	2.0076539511255858	-9.298833856286816	-13.523829120406683
 128	1	2	0.08367681321608178	-1.3739242072539835	-11.900631232138903	-13.014134482628906
 129	1	2	0.0836454600975172	1.0668828597334352	-11.491419585365506	-12.843534600186748
 130	1	3	-0.01711786324140287	-2.967470845552394	-9.037100888342108	-16.627093603200684
 131	1	1	-0.05949937778868791	-4.259690331515243	-9.18122627567384	-15.896544937590793
 132	1	1	-0.07752348659939227	-5.016261349505444	-8.050710119939204	-15.587703819278723
 133	1	1	-0.07752348659939227	-4.711573650612159	-10.446515892339363	-15.521854316037015
 134	1	3	-0.03341334926804334	-3.1463245319776894	-9.101692578507729	-18.14165652444682
 135	1	1	-0.08309577749885291	-6.224753951493418	-8.185692084385273	-14.904243227719409
 136	1	1	-0.08309577749885291	-5.920078854907496	-10.581398691562317	-14.83839645218229
 137	1	1	-0.08360366517078825	-6.6767007401059155	-9.450991874119737	-14.529629209881342
 138	1	2	0.03948378820834921	-2.2683234759493867	-9.820771450807417	-16.309513841404534
 139	1	2	0.0845609368538026	-4.676005677128326	-7.059507083457577	-15.875541547668856
 140	1	2	0.0845609368538026	-4.132403435236398	-11.335287155797712	-15.75798022074095
 141	1	2	0.02763401760988875	-2.1786194295346473	-8.992455072282382	-18.641254414693933
 142	1	2	0.02763401760988875	-3.805228364392248	-8.302249478355694	-18.497024178079943
 143	1	2	0.08367681321608178	-6.814094604128901	-7.3055702231257875	-14.664285867998313
 144	1	2	0.08367681321608178	-6.27235750372678	-11.566673842443922	-14.547128241350272
 145	1	2	0.0836454600975172	-7.617736213613122	-9.556152771344564	-13.997711478182232
 146	1	3	-0.01711786324140287	-3.7559196917279403	-10.441398624503192	-18.57130106907908
 147	1	1	-0.05949937778868791	-2.8538852317133916	-11.513550191775643	-18.06029272302053
 148	1	1	-0.07752348659939227	-1.4813913993325292	-11.283489484034199	-17.96446960039346
 149	1	1	-0.07752348659939227	-3.3827531767979986	-12.746280337145468	-17.677899606766513
 150	1	3	-0.03341334926804334	-3.9347733781532375	-10.505990314668813	-20.085863990325215
 151	1	1	-0.08309577749885291	-0.6378997274586613	-12.286326844370734	-17.486314909741296
 152	1	1	-0.08309577749885291	-2.5391828118682644	-13.749057144237842	-17.199756778136894
 153	1	1	-0.08360366517078825	-1.1667445018539127	-13.519103805960384	-17.104007065761298
 154	1	2	0.03948378820834921	-4.737027141957681	-10.514431083919863	-18.085607821261853
 155	1	2	0.0845609368538026	-1.0567546639914385	-10.327974128855528	-18.260749854572893
 156	1	2	0.0845609368538026	-4.449979394639759	-12.938733384844017	-17.749299637457824
 157	1	2	0.02763401760988875	-4.601358105241835	-9.70555489573303	-20.421947301016647
 158	1	2	0.02763401760988875	-2.976260386144774	-10.390608947523045	-20.603058039272568
 159	1	2	0.08367681321608178	0.4307562587744931	-12.10742932860898	-17.412244052163473
 160	1	2	0.08367681321608178	-2.950821899605076	-14.70922670446107	-16.9025494143857
 161	1	2	0.0836454600975172	-0.5100148326176601	-14.30001505768767	-16.731949531943542
 162	1	2	0.02763401760988875	-4.370198492260559	-11.462923204665572	-20.39275295077683

Velocities

   1	0.0	0.0	0.0
   2	0.0	0.0	0.0
   3	0.0	0.0	0.0
   4	0.0	0.0	0.0
   5	0.0	0.0	0.0
   6	0.0	0.0	0.0
   7	0.0	0.0	0.0
   8	0.0	0.0	0.0
   9	0.0	0.0	0.0
  10	0.0	0.0	0.0
  11	0.0	0.0	0.0
  12	0.0	0.0	0.0
  13	0.0	0.0	0.0
  14	0.0	0.0	0.0
  15	0.0	0.0	0.0
  16	0.0	0.0	0.0
  17	0.0	0.0	0.0
  18	0.0	0.0	0.0
  19	0.0	0.0	0.0
  20	0.0	0.0	0.0
  21	0.0	0.0	0.0
  22	0.0	0.0	0.0
  23	0.0	0.0	0.0
  24	0.0	0.0	0.0
  25	0.0	0.0	0.0
  26	0.0	0.0	0.0
  27	0.0	0.0	0.0
  28	0.0	0.0	0.0
  29	0.0	0.0	0.0
  30	0.0	0.0	0.0
  31	0.0	0.0	0.0
  32	0.0	0.0	0.0
  33	0.0	0.0	0.0
  34	0.0	0.0	0.0
  35	0.0	0.0	0.0
  36	0.0	0.0	0.0
  37	0.0	0.0	0.0
  38	0.0	0.0	0.0
  39	0.0	0.0	0.0
  40	0.0	0.0	0.0
  41	0.0	0.0	0.0
  42	0.0	0.0	0.0
  43	0.0	0.0	0.0
  44	0.0	0.0	0.0
  45	0.0	0.0	0.0
  46	0.0	0.0	0.0
  47	0.0	0.0	0.0
  48	0.0	0.0	0.0
  49	0.0	0.0	0.0
  50	0.0	0.0	0.0
  51	0.0	0.0	0.0
  52	0.0	0.0	0.0
  53	0.0	0.0	0.0
  54	0.0	0.0	0.0
  55	0.0	0.0	0.0
  56	0.0	0.0	0.0
  57	0.0	0.0	0.0
  58	0.0	0.0	0.0
  59	0.0	0.0	0.0
  60	0.0	0.0	0.0
  61	0.0	0.0	0.0
  62	0.0	0.0	0.0
  63	0.0	0.0	0.0
  64	0.0	0.0	0.0
  65	0.0	0.0	0.0
  66	0.0	0.0	0.0
  67	0.0	0.0	0.0
  68	0.0	0.0	0.0
  69	0.0	0.0	0.0
  70	0.0	0.0	0.0
  71	0.0	0.0	0.0
  72	0.0	0.0	0.0
  73	0.0	0.0	0.0
  74	0.0	0.0	0.0
  75	0.0	0.0	0.0
  76	0.0	0.0	0.0
  77	0.0	0.0	0.0
  78	0.0	0.0	0.0
  79	0.0	0.0	0.0
  80	0.0	0.0	0.0
  81	0.0	0.0	0.0
  82	0.0	0.0	0.0
  83	0.0	0.0	0.0
  84	0.0	0.0	0.0
  85	0.0	0.0	0.0
  86	0.0	0.0	0.0
  87	0.0	0.0	0.0
  88	0.0	0.0	0.0
  89	0.0	0.0	0.0
  90	0.0	0.0	0.0
  91	0.0	0.0	0.0
  92	0.0	0.0	0.0
  93	0.0	0.0	0.0
  94	0.0	0.0	0.0
  95	0.0	0.0	0.0
  96	0.0	0.0	0.0
  97	0.0	0.0	0.0
  98	0.0	0.0	0.0
  99	0.0	0.0	0.0
 100	0.0	0.0	0.0
 101	0.0	0.0	0.0
 102	0.0	0.0	0.0
 103	0.0	0.0	0.0
 104	0.0	0.0	0.0
 105	0.0	0.0	0.0
 106	0.0	0.0	0.0
 107	0.0	0.0	0.0
 108	0.0	0.0	0.0
 109	0.0	0.0	0.0
 110	0.0	0.0	0.0
 111	0.0	0.0	0.0
 112	0.0	0.0	0.0
 113	0.0	0.0	0.0
 114	0.0	0.0	0.0
 115	0.0	0.0	0.0
 116	0.0	0.0	0.0
 117	0.0	0.0	0.0
 118	0.0	0.0	0.0
 119	0.0	0.0	0.0
 120	0.0	0.0	0.0
 121	0.0	0.0	0.0
 122	0.0	0.0	0.0
 123	0.0	0.0	0.0
 124	0.0	0.0	0.0
 125	0.0	0.0	0.0
 126	0.0	0.0	0.0
 127	0.0	0.0	0.0
 128	0.0	0.0	0.0
 129	0.0	0.0	0.0
 130	0.0	0.0	0.0
 131	0.0	0.0	0.0
 132	0.0	0.0	0.0
 133	0.0	0.0	0.0
 134	0.0	0.0	0.0
 135	0.0	0.0	0.0
 136	0.0	0.0	0.0
 137	0.0	0.0	0.0
 138	0.0	0.0	0.0
 139	0.0	0.0	0.0
 140	0.0	0.0	0.0
 141	0.0	0.0	0.0
 142	0.0	0.0	0.0
 143	0.0	0.0	0.0
 144	0.0	0.0	0.0
 145	0.0	0.0	0.0
 146	0.0	0.0	0.0
 147	0.0	0.0	0.0
 148	0.0	0.0	0.0
 149	0.0	0.0	0.0
 150	0.0	0.0	0.0
 151	0.0	0.0	0.0
 152	0.0	0.0	0.0
 153	0.0	0.0	0.0
 154	0.0	0.0	0.0
 155	0.0	0.0	0.0
 156	0.0	0.0	0.0
 157	0.0	0.0	0.0
 158	0.0	0.0	0.0
 159	0.0	0.0	0.0
 160	0.0	0.0	0.0
 161	0.0	0.0	0.0
 162	0.0	0.0	0.0

Bonds

   1	4	2	1
   2	4	2	10
   3	2	3	2
   4	5	4	11
   5	1	4	3
   6	5	5	12
   7	1	5	3
   8	4	6	13
   9	3	6	2
  10	1	7	4
  11	1	8	5
  12	1	9	7
  13	1	9	8
  14	4	14	6
  15	5	15	7
  16	5	16	8
  17	5	17	9
  18	4	18	26
  19	2	19	18
  20	5	20	27
  21	1	20	19
  22	5	21	28
  23	1	21	19
  24	4	22	29
  25	3	22	18
  26	1	23	20
  27	1	24	21
  28	1	25	23
  29	1	25	24
  30	4	30	22
  31	5	31	23
  32	5	32	24
  33	5	33	25
  34	3	6	18
  35	4	34	42
  36	2	35	34
  37	5	36	43
  38	1	36	35
  39	5	37	44
  40	1	37	35
  41	4	38	45
  42	3	38	34
  43	1	39	36
  44	1	40	37
  45	1	41	39
  46	1	41	40
  47	4	46	38
  48	5	47	39
  49	5	48	40
  50	5	49	41
  51	3	22	34
  52	4	50	58
  53	2	51	50
  54	5	52	59
  55	1	52	51
  56	5	53	60
  57	1	53	51
  58	4	54	61
  59	3	54	50
  60	1	55	52
  61	1	56	53
  62	1	57	55
  63	1	57	56
  64	4	62	54
  65	5	63	55
  66	5	64	56
  67	5	65	57
  68	3	38	50
  69	4	66	74
  70	2	67	66
  71	5	68	75
  72	1	68	67
  73	5	69	76
  74	1	69	67
  75	4	70	77
  76	3	70	66
  77	1	71	68
  78	1	72	69
  79	1	73	71
  80	1	73	72
  81	4	78	70
  82	5	79	71
  83	5	80	72
  84	5	81	73
  85	3	54	66
  86	4	82	90
  87	2	83	82
  88	5	84	91
  89	1	84	83
  90	5	85	92
  91	1	85	83
  92	4	86	93
  93	3	86	82
  94	1	87	84
  95	1	88	85
  96	1	89	87
  97	1	89	88
  98	4	94	86
  99	5	95	87
 100	5	96	88
 101	5	97	89
 102	3	70	82
 103	4	98	106
 104	2	99	98
 105	5	100	107
 106	1	100	99
 107	5	101	108
 108	1	101	99
 109	4	102	109
 110	3	102	98
 111	1	103	100
 112	1	104	101
 113	1	105	103
 114	1	105	104
 115	4	110	102
 116	5	111	103
 117	5	112	104
 118	5	113	105
 119	3	86	98
 120	4	114	122
 121	2	115	114
 122	5	116	123
 123	1	116	115
 124	5	117	124
 125	1	117	115
 126	4	118	125
 127	3	118	114
 128	1	119	116
 129	1	120	117
 130	1	121	119
 131	1	121	120
 132	4	126	118
 133	5	127	119
 134	5	128	120
 135	5	129	121
 136	3	102	114
 137	4	130	138
 138	2	131	130
 139	5	132	139
 140	1	132	131
 141	5	133	140
 142	1	133	131
 143	4	134	141
 144	3	134	130
 145	1	135	132
 146	1	136	133
 147	1	137	135
 148	1	137	136
 149	4	142	134
 150	5	143	135
 151	5	144	136
 152	5	145	137
 153	3	118	130
 154	4	146	154
 155	2	147	146
 156	5	148	155
 157	1	148	147
 158	5	149	156
 159	1	149	147
 160	4	150	157
 161	3	150	146
 162	1	151	148
 163	1	152	149
 164	1	153	151
 165	1	153	152
 166	4	158	150
 167	5	159	151
 168	5	160	152
 169	5	161	153
 170	4	162	150
 171	3	134	146

Angles

   1	1	1	2	10
   2	1	1	2	3
   3	1	1	2	6
   4	1	10	2	3
   5	1	10	2	6
   6	1	3	2	6
   7	2	2	3	4
   8	2	2	3	5
   9	2	4	3	5
  10	2	11	4	3
  11	2	11	4	7
  12	2	3	4	7
  13	2	12	5	3
  14	2	12	5	8
  15	2	3	5	8
  16	1	13	6	2
  17	1	13	6	14
  18	1	2	6	14
  19	2	4	7	9
  20	2	4	7	15
  21	2	9	7	15
  22	2	5	8	9
  23	2	5	8	16
  24	2	9	8	16
  25	2	7	9	8
  26	2	7	9	17
  27	2	8	9	17
  28	1	26	18	19
  29	1	26	18	22
  30	1	19	18	22
  31	2	18	19	20
  32	2	18	19	21
  33	2	20	19	21
  34	2	27	20	19
  35	2	27	20	23
  36	2	19	20	23
  37	2	28	21	19
  38	2	28	21	24
  39	2	19	21	24
  40	1	29	22	18
  41	1	29	22	30
  42	1	18	22	30
  43	2	20	23	25
  44	2	20	23	31
  45	2	25	23	31
  46	2	21	24	25
  47	2	21	24	32
  48	2	25	24	32
  49	2	23	25	24
  50	2	23	25	33
  51	2	24	25	33
  52	1	13	6	18
  53	1	2	6	18
  54	1	14	6	18
  55	1	6	18	26
  56	1	6	18	19
  57	1	6	18	22
  58	1	42	34	35
  59	1	42	34	38
  60	1	35	34	38
  61	2	34	35	36
  62	2	34	35	37
  63	2	36	35	37
  64	2	43	36	35
  65	2	43	36	39
  66	2	35	36	39
  67	2	44	37	35
  68	2	44	37	40
  69	2	35	37	40
  70	1	45	38	34
  71	1	45	38	46
  72	1	34	38	46
  73	2	36	39	41
  74	2	36	39	47
  75	2	41	39	47
  76	2	37	40	41
  77	2	37	40	48
  78	2	41	40	48
  79	2	39	41	40
  80	2	39	41	49
  81	2	40	41	49
  82	1	29	22	34
  83	1	18	22	34
  84	1	30	22	34
  85	1	22	34	42
  86	1	22	34	35
  87	1	22	34	38
  88	1	58	50	51
  89	1	58	50	54
  90	1	51	50	54
  91	2	50	51	52
  92	2	50	51	53
  93	2	52	51	53
  94	2	59	52	51
  95	2	59	52	55
  96	2	51	52	55
  97	2	60	53	51
  98	2	60	53	56
  99	2	51	53	56
 100	1	61	54	50
 101	1	61	54	62
 102	1	50	54	62
 103	2	52	55	57
 104	2	52	55	63
 105	2	57	55	63
 106	2	53	56	57
 107	2	53	56	64
 108	2	57	56	64
 109	2	55	57	56
 110	2	55	57	65
 111	2	56	57	65
 112	1	45	38	50
 113	1	34	38	50
 114	1	46	38	50
 115	1	38	50	58
 116	1	38	50	51
 117	1	38	50	54
 118	1	74	66	67
 119	1	74	66	70
 120	1	67	66	70
 121	2	66	67	68
 122	2	66	67	69
 123	2	68	67	69
 124	2	75	68	67
 125	2	75	68	71
 126	2	67	68	71
 127	2	76	69	67
 128	2	76	69	72
 129	2	67	69	72
 130	1	77	70	66
 131	1	77	70	78
 132	1	66	70	78
 133	2	68	71	73
 134	2	68	71	79
 135	2	73	71	79
 136	2	69	72	73
 137	2	69	72	80
 138	2	73	72	80
 139	2	71	73	72
 140	2	71	73	81
 141	2	72	73	81
 142	1	61	54	66
 143	1	50	54	66
 144	1	62	54	66
 145	1	54	66	74
 146	1	54	66	67
 147	1	54	66	70
 148	1	90	82	83
 149	1	90	82	86
 150	1	83	82	86
 151	2	82	83	84
 152	2	82	83	85
 153	2	84	83	85
 154	2	91	84	83
 155	2	91	84	87
 156	2	83	84	87
 157	2	92	85	83
 158	2	92	85	88
 159	2	83	85	88
 160	1	93	86	82
 161	1	93	86	94
 162	1	82	86	94
 163	2	84	87	89
 164	2	84	87	95
 165	2	89	87	95
 166	2	85	88	89
 167	2	85	88	96
 168	2	89	88	96
 169	2	87	89	88
 170	2	87	89	97
 171	2	88	89	97
 172	1	77	70	82
 173	1	66	70	82
 174	1	78	70	82
 175	1	70	82	90
 176	1	70	82	83
 177	1	70	82	86
 178	1	106	98	99
 179	1	106	98	102
 180	1	99	98	102
 181	2	98	99	100
 182	2	98	99	101
 183	2	100	99	101
 184	2	107	100	99
 185	2	107	100	103
 186	2	99	100	103
 187	2	108	101	99
 188	2	108	101	104
 189	2	99	101	104
 190	1	109	102	98
 191	1	109	102	110
 192	1	98	102	110
 193	2	100	103	105
 194	2	100	103	111
 195	2	105	103	111
 196	2	101	104	105
 197	2	101	104	112
 198	2	105	104	112
 199	2	103	105	104
 200	2	103	105	113
 201	2	104	105	113
 202	1	93	86	98
 203	1	82	86	98
 204	1	94	86	98
 205	1	86	98	106
 206	1	86	98	99
 207	1	86	98	102
 208	1	122	114	115
 209	1	122	114	118
 210	1	115	114	118
 211	2	114	115	116
 212	2	114	115	117
 213	2	116	115	117
 214	2	123	116	115
 215	2	123	116	119
 216	2	115	116	119
 217	2	124	117	115
 218	2	124	117	120
 219	2	115	117	120
 220	1	125	118	114
 221	1	125	118	126
 222	1	114	118	126
 223	2	116	119	121
 224	2	116	119	127
 225	2	121	119	127
 226	2	117	120	121
 227	2	117	120	128
 228	2	121	120	128
 229	2	119	121	120
 230	2	119	121	129
 231	2	120	121	129
 232	1	109	102	114
 233	1	98	102	114
 234	1	110	102	114
 235	1	102	114	122
 236	1	102	114	115
 237	1	102	114	118
 238	1	138	130	131
 239	1	138	130	134
 240	1	131	130	134
 241	2	130	131	132
 242	2	130	131	133
 243	2	132	131	133
 244	2	139	132	131
 245	2	139	132	135
 246	2	131	132	135
 247	2	140	133	131
 248	2	140	133	136
 249	2	131	133	136
 250	1	141	134	130
 251	1	141	134	142
 252	1	130	134	142
 253	2	132	135	137
 254	2	132	135	143
 255	2	137	135	143
 256	2	133	136	137
 257	2	133	136	144
 258	2	137	136	144
 259	2	135	137	136
 260	2	135	137	145
 261	2	136	137	145
 262	1	125	118	130
 263	1	114	118	130
 264	1	126	118	130
 265	1	118	130	138
 266	1	118	130	131
 267	1	118	130	134
 268	1	154	146	147
 269	1	154	146	150
 270	1	147	146	150
 271	2	146	147	148
 272	2	146	147	149
 273	2	148	147	149
 274	2	155	148	147
 275	2	155	148	151
 276	2	147	148	151
 277	2	156	149	147
 278	2	156	149	152
 279	2	147	149	152
 280	1	157	150	146
 281	1	157	150	158
 282	1	157	150	162
 283	1	146	150	158
 284	1	146	150	162
 285	1	158	150	162
 286	2	148	151	153
 287	2	148	151	159
 288	2	153	151	159
 289	2	149	152	153
 290	2	149	152	160
 291	2	153	152	160
 292	2	151	153	152
 293	2	151	153	161
 294	2	152	153	161
 295	1	141	134	146
 296	1	130	134	146
 297	1	142	134	146
 298	1	134	146	154
 299	1	134	146	147
 300	1	134	146	150

Dihedrals

   1	3	4	3	2	1
   2	3	4	3	2	10
   3	3	4	3	2	6
   4	3	5	3	2	1
   5	3	5	3	2	10
   6	3	5	3	2	6
   7	1	11	4	3	2
   8	1	11	4	3	5
   9	1	7	4	3	2
  10	1	7	4	3	5
  11	1	12	5	3	2
  12	1	12	5	3	4
  13	1	8	5	3	2
  14	1	8	5	3	4
  15	2	13	6	2	1
  16	2	13	6	2	10
  17	2	13	6	2	3
  18	2	14	6	2	1
  19	2	14	6	2	10
  20	2	14	6	2	3
  21	1	9	7	4	11
  22	1	9	7	4	3
  23	1	15	7	4	11
  24	1	15	7	4	3
  25	1	9	8	5	12
  26	1	9	8	5	3
  27	1	16	8	5	12
  28	1	16	8	5	3
  29	1	8	9	7	4
  30	1	8	9	7	15
  31	1	17	9	7	4
  32	1	17	9	7	15
  33	1	7	9	8	5
  34	1	7	9	8	16
  35	1	17	9	8	5
  36	1	17	9	8	16
  37	3	20	19	18	26
  38	3	20	19	18	22
  39	3	21	19	18	26
  40	3	21	19	18	22
  41	1	27	20	19	18
  42	1	27	20	19	21
  43	1	23	20	19	18
  44	1	23	20	19	21
  45	1	28	21	19	18
  46	1	28	21	19	20
  47	1	24	21	19	18
  48	1	24	21	19	20
  49	2	29	22	18	26
  50	2	29	22	18	19
  51	2	30	22	18	26
  52	2	30	22	18	19
  53	1	25	23	20	27
  54	1	25	23	20	19
  55	1	31	23	20	27
  56	1	31	23	20	19
  57	1	25	24	21	28
  58	1	25	24	21	19
  59	1	32	24	21	28
  60	1	32	24	21	19
  61	1	24	25	23	20
  62	1	24	25	23	31
  63	1	33	25	23	20
  64	1	33	25	23	31
  65	1	23	25	24	21
  66	1	23	25	24	32
  67	1	33	25	24	21
  68	1	33	25	24	32
  69	2	1	2	6	18
  70	2	10	2	6	18
  71	2	3	2	6	18
  72	3	6	18	19	20
  73	3	6	18	19	21
  74	2	6	18	22	29
  75	2	6	18	22	30
  76	2	13	6	18	26
  77	2	13	6	18	19
  78	2	13	6	18	22
  79	2	2	6	18	26
  80	2	2	6	18	19
  81	2	2	6	18	22
  82	2	14	6	18	26
  83	2	14	6	18	19
  84	2	14	6	18	22
  85	3	36	35	34	42
  86	3	36	35	34	38
  87	3	37	35	34	42
  88	3	37	35	34	38
  89	1	43	36	35	34
  90	1	43	36	35	37
  91	1	39	36	35	34
  92	1	39	36	35	37
  93	1	44	37	35	34
  94	1	44	37	35	36
  95	1	40	37	35	34
  96	1	40	37	35	36
  97	2	45	38	34	42
  98	2	45	38	34	35
  99	2	46	38	34	42
 100	2	46	38	34	35
 101	1	41	39	36	43
 102	1	41	39	36	35
 103	1	47	39	36	43
 104	1	47	39	36	35
 105	1	41	40	37	44
 106	1	41	40	37	35
 107	1	48	40	37	44
 108	1	48	40	37	35
 109	1	40	41	39	36
 110	1	40	41	39	47
 111	1	49	41	39	36
 112	1	49	41	39	47
 113	1	39	41	40	37
 114	1	39	41	40	48
 115	1	49	41	40	37
 116	1	49	41	40	48
 117	2	26	18	22	34
 118	2	19	18	22	34
 119	2	6	18	22	34
 120	3	22	34	35	36
 121	3	22	34	35	37
 122	2	22	34	38	45
 123	2	22	34	38	46
 124	2	29	22	34	42
 125	2	29	22	34	35
 126	2	29	22	34	38
 127	2	18	22	34	42
 128	2	18	22	34	35
 129	2	18	22	34	38
 130	2	30	22	34	42
 131	2	30	22	34	35
 132	2	30	22	34	38
 133	3	52	51	50	58
 134	3	52	51	50	54
 135	3	53	51	50	58
 136	3	53	51	50	54
 137	1	59	52	51	50
 138	1	59	52	51	53
 139	1	55	52	51	50
 140	1	55	52	51	53
 141	1	60	53	51	50
 142	1	60	53	51	52
 143	1	56	53	51	50
 144	1	56	53	51	52
 145	2	61	54	50	58
 146	2	61	54	50	51
 147	2	62	54	50	58
 148	2	62	54	50	51
 149	1	57	55	52	59
 150	1	57	55	52	51
 151	1	63	55	52	59
 152	1	63	55	52	51
 153	1	57	56	53	60
 154	1	57	56	53	51
 155	1	64	56	53	60
 156	1	64	56	53	51
 157	1	56	57	55	52
 158	1	56	57	55	63
 159	1	65	57	55	52
 160	1	65	57	55	63
 161	1	55	57	56	53
 162	1	55	57	56	64
 163	1	65	57	56	53
 164	1	65	57	56	64
 165	2	42	34	38	50
 166	2	35	34	38	50
 167	2	22	34	38	50
 168	3	38	50	51	52
 169	3	38	50	51	53
 170	2	38	50	54	61
 171	2	38	50	54	62
 172	2	45	38	50	58
 173	2	45	38	50	51
 174	2	45	38	50	54
 175	2	34	38	50	58
 176	2	34	38	50	51
 177	2	34	38	50	54
 178	2	46	38	50	58
 179	2	46	38	50	51
 180	2	46	38	50	54
 181	3	68	67	66	74
 182	3	68	67	66	70
 183	3	69	67	66	74
 184	3	69	67	66	70
 185	1	75	68	67	66
 186	1	75	68	67	69
 187	1	71	68	67	66
 188	1	71	68	67	69
 189	1	76	69	67	66
 190	1	76	69	67	68
 191	1	72	69	67	66
 192	1	72	69	67	68
 193	2	77	70	66	74
 194	2	77	70	66	67
 195	2	78	70	66	74
 196	2	78	70	66	67
 197	1	73	71	68	75
 198	1	73	71	68	67
 199	1	79	71	68	75
 200	1	79	71	68	67
 201	1	73	72	69	76
 202	1	73	72	69	67
 203	1	80	72	69	76
 204	1	80	72	69	67
 205	1	72	73	71	68
 206	1	72	73	71	79
 207	1	81	73	71	68
 208	1	81	73	71	79
 209	1	71	73	72	69
 210	1	71	73	72	80
 211	1	81	73	72	69
 212	1	81	73	72	80
 213	2	58	50	54	66
 214	2	51	50	54	66
 215	2	38	50	54	66
 216	3	54	66	67	68
 217	3	54	66	67	69
 218	2	54	66	70	77
 219	2	54	66	70	78
 220	2	61	54	66	74
 221	2	61	54	66	67
 222	2	61	54	66	70
 223	2	50	54	66	74
 224	2	50	54	66	67
 225	2	50	54	66	70
 226	2	62	54	66	74
 227	2	62	54	66	67
 228	2	62	54	66	70
 229	3	84	83	82	90
 230	3	84	83	82	86
 231	3	85	83	82	90
 232	3	85	83	82	86
 233	1	91	84	83	82
 234	1	91	84	83	85
 235	1	87	84	83	82
 236	1	87	84	83	85
 237	1	92	85	83	82
 238	1	92	85	83	84
 239	1	88	85	83	82
 240	1	88	85	83	84
 241	2	93	86	82	90
 242	2	93	86	82	83
 243	2	94	86	82	90
 244	2	94	86	82	83
 245	1	89	87	84	91
 246	1	89	87	84	83
 247	1	95	87	84	91
 248	1	95	87	84	83
 249	1	89	88	85	92
 250	1	89	88	85	83
 251	1	96	88	85	92
 252	1	96	88	85	83
 253	1	88	89	87	84
 254	1	88	89	87	95
 255	1	97	89	87	84
 256	1	97	89	87	95
 257	1	87	89	88	85
 258	1	87	89	88	96
 259	1	97	89	88	85
 260	1	97	89	88	96
 261	2	74	66	70	82
 262	2	67	66	70	82
 263	2	54	66	70	82
 264	3	70	82	83	84