pySIMM System Object

4700 atoms
4200 bonds
6900 angles
6000 dihedrals
200 impropers

7 atom types
7 bond types
10 angle types
6 dihedral types
1 improper types

-117.012396 117.012396 xlo xhi
-117.012396 117.012396 ylo yhi
-117.012396 117.012396 zlo zhi

Masses

   1	16.0	# oh
   2	1.008	# ho
   3	12.01	# c3
   4	1.008	# hc
   5	1.008	# h1
   6	16.0	# o
   7	12.01	# c

Pair Coeffs

   1	0.093	3.24287133403	# oh
   2	0.0047	0.537924646013	# ho
   3	0.1078	3.39770953124	# c3
   4	0.0208	2.60017699876	# hc
   5	0.0208	2.42199725514	# h1
   6	0.1463	3.04812087425	# o
   7	0.0988	3.31521230994	# c

Bond Coeffs

   1	375.92	1.097	# c3,h1
   2	375.92	1.097	# c3,hc
   3	232.52	1.538	# c3,c3
   4	293.4	1.423	# c3,oh
   5	563.51	0.973	# ho,oh
   6	243.22	1.524	# c,c3
   7	652.57	1.218	# c,o

Angle Coeffs

   1	38.802	108.46	# h1,c3,h1
   2	46.816	109.8	# c3,c3,hc
   3	46.868	109.56	# c3,c3,h1
   4	84.642	110.19	# c3,c3,oh
   5	38.96	107.58	# hc,c3,hc
   6	62.54	110.26	# h1,c3,oh
   7	49.027	107.26	# c3,oh,ho
   8	47.411	108.77	# c,c3,hc
   9	84.552	123.2	# c3,c,o
  10	64.041	116.5	# c3,c,c3

Dihedral Coeffs

   1	1	0.113	1	3	# ho,oh,c3,h1
   2	1	0.155555555556	1	3	# X,c3,c3,X
   3	1	0.0	1	3	# ho,oh,c3,c3
   4	2	0.18	1	3	0.51	1	1	# hc,c3,c3,oh
   5	2	0.83	1	1	0.04	-1	3	# o,c,c3,hc
   6	1	0.0	1	2	# hc,c3,c,c3

Improper Coeffs

   1	10.5	-1	2	# c,X,X,o

Atoms

   1	1	1	-0.443872	-14.4058	34.9812	-50.8416
   2	1	3	-0.00226649	-13.2196	35.3003	-51.4645
   3	1	3	-0.0583719	-12.1207	35.1548	-50.4534
   4	1	5	0.0710826	-13.0135	34.7156	-52.4535
   5	1	5	0.0710826	-13.2894	36.2724	-51.8841
   6	1	4	0.0300136	-12.3429	35.6122	-49.5173
   7	1	4	0.0300136	-11.9877	34.0645	-50.2492
   8	1	4	0.0300136	-11.1893	35.5738	-50.8435
   9	1	2	0.272304	-14.8861	34.4394	-51.5108
  10	2	1	-0.443872	-77.1962	26.5967	-0.714425
  11	2	3	-0.00226649	-76.8949	26.8745	0.654761
  12	2	3	-0.0583719	-76.177	28.2413	0.808941
  13	2	5	0.0710826	-77.8378	26.874	1.24488
  14	2	5	0.0710826	-76.2088	26.1108	1.03343
  15	2	4	0.0300136	-76.1885	28.5935	1.83684
  16	2	4	0.0300136	-75.1309	28.2212	0.403266
  17	2	4	0.0300136	-76.7861	28.8962	0.169279
  18	2	2	0.272304	-76.7521	27.3196	-1.22316
  19	3	1	-0.443872	-23.576	-109.895	-31.5453
  20	3	3	-0.00226649	-24.5805	-110.412	-32.4168
  21	3	3	-0.0583719	-25.7132	-109.447	-32.7168
  22	3	5	0.0710826	-24.1154	-110.606	-33.4345
  23	3	5	0.0710826	-25.0059	-111.394	-32.0864
  24	3	4	0.0300136	-26.3032	-109.248	-31.8516
  25	3	4	0.0300136	-25.3219	-108.437	-33.1039
  26	3	4	0.0300136	-26.2956	-109.898	-33.4923
  27	3	2	0.272304	-23.5554	-110.519	-30.7845
  28	4	1	-0.443872	98.4995	-31.2167	44.0109
  29	4	3	-0.00226649	98.1611	-30.1005	44.816
  30	4	3	-0.0583719	96.8554	-29.4931	44.4247
  31	4	5	0.0710826	98.1733	-30.3956	45.8778
  32	4	5	0.0710826	98.934	-29.3103	44.8592
  33	4	4	0.0300136	96.2547	-30.2353	43.9939
  34	4	4	0.0300136	96.2366	-29.1373	45.3489
  35	4	4	0.0300136	96.9809	-28.7261	43.638
  36	4	2	0.272304	98.0401	-32.0081	44.3557
  37	5	1	-0.443872	-49.5668	88.405	95.7692
  38	5	3	-0.00226649	-50.4594	89.0127	96.6869
  39	5	3	-0.0583719	-49.7647	89.6341	97.8882
  40	5	5	0.0710826	-51.0328	89.7882	96.169
  41	5	5	0.0710826	-51.2248	88.3557	97.066
  42	5	4	0.0300136	-49.3662	88.8736	98.5583
  43	5	4	0.0300136	-48.8833	90.1349	97.467
  44	5	4	0.0300136	-50.4004	90.4097	98.4049
  45	5	2	0.272304	-49.1903	87.5918	96.1043
  46	6	1	-0.443872	-4.31997	12.253	-9.84396
  47	6	3	-0.00226649	-3.62787	11.9811	-11.0854
  48	6	3	-0.0583719	-4.42586	12.7314	-12.1515
  49	6	5	0.0710826	-2.58995	12.3367	-10.963
  50	6	5	0.0710826	-3.51723	10.9163	-11.3207
  51	6	4	0.0300136	-5.3748	13.0283	-11.7495
  52	6	4	0.0300136	-3.82483	13.6298	-12.43
  53	6	4	0.0300136	-4.70434	12.1938	-13.0566
  54	6	2	0.272304	-5.1947	12.5395	-10.1323
  55	7	1	-0.443872	12.9066	-40.5503	20.5651
  56	7	3	-0.00226649	13.5303	-41.7081	21.1447
  57	7	3	-0.0583719	15.0595	-41.5764	20.9734
  58	7	5	0.0710826	13.265	-41.7079	22.216
  59	7	5	0.0710826	13.2	-42.6266	20.6659
  60	7	4	0.0300136	15.5308	-40.8804	21.7215
  61	7	4	0.0300136	15.5268	-42.4867	21.0325
  62	7	4	0.0300136	15.2595	-41.2391	19.9855
  63	7	2	0.272304	13.5617	-39.9215	20.2437
  64	8	1	-0.443872	53.1677	4.93254	17.3739
  65	8	3	-0.00226649	52.2451	4.27876	18.2715
  66	8	3	-0.0583719	51.0628	5.26047	18.7208
  67	8	5	0.0710826	51.6564	3.46863	17.7681
  68	8	5	0.0710826	52.8276	3.94163	19.1778
  69	8	4	0.0300136	50.049	4.89782	18.3986
  70	8	4	0.0300136	51.0682	5.34185	19.8055
  71	8	4	0.0300136	51.1838	6.26304	18.3268
  72	8	2	0.272304	53.4575	4.40009	16.6229
  73	9	1	-0.443872	6.82763	84.1769	-75.8092
  74	9	3	-0.00226649	6.33656	84.8306	-74.6187
  75	9	3	-0.0583719	7.47018	85.2777	-73.6444
  76	9	5	0.0710826	5.85655	85.6971	-75.0226
  77	9	5	0.0710826	5.50949	84.4015	-74.2167
  78	9	4	0.0300136	8.31654	84.5253	-73.5271
  79	9	4	0.0300136	7.98118	86.2264	-73.963
  80	9	4	0.0300136	6.98943	85.4387	-72.5949
  81	9	2	0.272304	7.1478	84.8898	-76.3633
  82	10	1	-0.443872	-37.2629	111.517	25.4079
  83	10	3	-0.00226649	-38.5651	110.938	25.3992
  84	10	3	-0.0583719	-39.478	111.831	24.4737
  85	10	5	0.0710826	-38.5487	109.93	24.8776
  86	10	5	0.0710826	-38.9706	110.803	26.4345
  87	10	4	0.0300136	-39.3634	112.866	24.7803
  88	10	4	0.0300136	-39.1773	111.763	23.4498
  89	10	4	0.0300136	-40.5062	111.518	24.6836
  90	10	2	0.272304	-37.0231	111.955	24.5609
  91	11	1	-0.443872	9.58073	-9.36592	-71.0426
  92	11	3	-0.00226649	8.40969	-8.98779	-71.6609
  93	11	3	-0.0583719	8.08289	-7.46679	-71.4699
  94	11	5	0.0710826	8.44009	-9.14534	-72.7657
  95	11	5	0.0710826	7.51716	-9.59431	-71.3518
  96	11	4	0.0300136	8.65862	-7.21448	-70.589
  97	11	4	0.0300136	8.50626	-6.89298	-72.3182
  98	11	4	0.0300136	6.99426	-7.16028	-71.3108
  99	11	2	0.272304	10.208	-8.8313	-71.5156
 100	12	1	-0.443872	-92.9453	26.1909	74.3834
 101	12	3	-0.00226649	-92.9478	27.5611	74.1577
 102	12	3	-0.0583719	-91.772	27.9392	73.2066
 103	12	5	0.0710826	-93.9215	27.753	73.5929
 104	12	5	0.0710826	-92.8015	28.04	75.1168
 105	12	4	0.0300136	-92.0153	27.5308	72.1973
 106	12	4	0.0300136	-91.6689	29.0237	73.0911
 107	12	4	0.0300136	-90.7741	27.5454	73.4125
 108	12	2	0.272304	-92.0102	25.913	74.1702
 109	13	1	-0.443872	-47.3858	23.5295	85.8778
 110	13	3	-0.00226649	-46.8009	24.5638	86.6489
 111	13	3	-0.0583719	-45.4239	24.1862	87.285
 112	13	5	0.0710826	-46.7468	25.4723	86.0598
 113	13	5	0.0710826	-47.5364	24.7874	87.4265
 114	13	4	0.0300136	-44.5523	24.6866	86.8265
 115	13	4	0.0300136	-45.4623	24.5065	88.3387
 116	13	4	0.0300136	-45.1576	23.1131	87.2839
 117	13	2	0.272304	-47.3258	23.8962	84.9721
 118	14	1	-0.443872	88.5194	-104.532	-60.2513
 119	14	3	-0.00226649	88.1696	-105.721	-59.567
 120	14	3	-0.0583719	86.6713	-105.813	-59.6543
 121	14	5	0.0710826	88.5974	-106.614	-59.9768
 122	14	5	0.0710826	88.4555	-105.558	-58.55
 123	14	4	0.0300136	86.2033	-105.064	-58.9377
 124	14	4	0.0300136	86.3553	-105.637	-60.6857
 125	14	4	0.0300136	86.2008	-106.783	-59.4009
 126	14	2	0.272304	87.9359	-104.377	-61.016
 127	15	1	-0.443872	-43.5359	5.22812	32.5837
 128	15	3	-0.00226649	-42.7878	6.14035	31.7768
 129	15	3	-0.0583719	-41.9345	5.32513	30.7666
 130	15	5	0.0710826	-43.488	6.79851	31.2796
 131	15	5	0.0710826	-42.1183	6.77295	32.364
 132	15	4	0.0300136	-41.6925	6.02063	29.9885
 133	15	4	0.0300136	-40.9834	5.0427	31.2339
 134	15	4	0.0300136	-42.4541	4.45106	30.3446
 135	15	2	0.272304	-44.4559	5.51618	32.5189
 136	16	1	-0.443872	19.2558	49.1358	-9.38728
 137	16	3	-0.00226649	19.6255	48.9227	-8.11505
 138	16	3	-0.0583719	20.1436	47.4545	-8.08379
 139	16	5	0.0710826	20.55	49.5612	-7.8891
 140	16	5	0.0710826	18.7706	49.1671	-7.42627
 141	16	4	0.0300136	20.7723	47.3713	-7.17729
 142	16	4	0.0300136	19.2516	46.7725	-7.89731
 143	16	4	0.0300136	20.6776	47.059	-8.99411
 144	16	2	0.272304	19.9316	48.6661	-9.99941
 145	17	1	-0.443872	-6.13039	17.4971	24.7724
 146	17	3	-0.00226649	-4.83469	17.241	24.1522
 147	17	3	-0.0583719	-5.09314	16.6976	22.6869
 148	17	5	0.0710826	-4.22824	18.15	23.9866
 149	17	5	0.0710826	-4.29177	16.3627	24.6292
 150	17	4	0.0300136	-4.93321	15.6223	22.556
 151	17	4	0.0300136	-6.12543	17.0008	22.351
 152	17	4	0.0300136	-4.35721	17.27	22.0246
 153	17	2	0.272304	-6.80092	17.774	24.0775
 154	18	1	-0.443872	59.9242	77.3941	-1.07773
 155	18	3	-0.00226649	58.6732	77.46	-0.466272
 156	18	3	-0.0583719	58.4072	78.9656	0.0167452
 157	18	5	0.0710826	57.9715	77.2312	-1.22185
 158	18	5	0.0710826	58.5808	76.7329	0.358718
 159	18	4	0.0300136	59.3041	79.4813	0.323695
 160	18	4	0.0300136	57.949	79.439	-0.876535
 161	18	4	0.0300136	57.6758	79.0077	0.782706
 162	18	2	0.272304	59.9068	77.9489	-1.87527
 163	19	1	-0.443872	83.9276	-36.7467	3.07919
 164	19	3	-0.00226649	83.153	-35.6122	2.79004
 165	19	3	-0.0583719	82.4074	-35.1062	4.08306
 166	19	5	0.0710826	83.769	-34.8367	2.36617
 167	19	5	0.0710826	82.4083	-35.8718	2.05014
 168	19	4	0.0300136	81.4363	-34.6965	3.75151
 169	19	4	0.0300136	82.2257	-35.9242	4.77818
 170	19	4	0.0300136	83.0731	-34.37	4.61866
 171	19	2	0.272304	83.5359	-37.2699	3.79511
 172	20	1	-0.443872	87.3444	78.1952	-82.9552
 173	20	3	-0.00226649	86.4338	77.545	-82.1064
 174	20	3	-0.0583719	85.8497	78.5486	-81.1017
 175	20	5	0.0710826	85.5986	77.2574	-82.6939
 176	20	5	0.0710826	86.9414	76.635	-81.6761
 177	20	4	0.0300136	85.4374	78.2007	-80.1516
 178	20	4	0.0300136	86.6448	79.2895	-80.7797
 179	20	4	0.0300136	85.1067	79.2258	-81.57
 180	20	2	0.272304	86.8171	78.5346	-83.7027
 181	21	1	-0.443872	70.0294	-58.0057	43.8483
 182	21	3	-0.00226649	70.4408	-57.9555	42.5449
 183	21	3	-0.0583719	71.7505	-58.8457	42.4084
 184	21	5	0.0710826	69.6088	-58.3535	41.9359
 185	21	5	0.0710826	70.6405	-56.9085	42.2596
 186	21	4	0.0300136	72.5538	-58.2679	41.8948
 187	21	4	0.0300136	72.1241	-59.2095	43.3882
 188	21	4	0.0300136	71.4759	-59.7365	41.8478
 189	21	2	0.272304	70.7221	-57.6726	44.4456
 190	22	1	-0.443872	-112.301	-50.8386	-91.0965
 191	22	3	-0.00226649	-112.39	-52.1132	-91.6969
 192	22	3	-0.0583719	-112.986	-51.889	-93.0857
 193	22	5	0.0710826	-111.403	-52.5557	-91.8866
 194	22	5	0.0710826	-112.936	-52.7693	-91.0623
 195	22	4	0.0300136	-112.672	-52.6892	-93.7478
 196	22	4	0.0300136	-114.069	-52.0129	-93.0253
 197	22	4	0.0300136	-112.658	-50.917	-93.4559
 198	22	2	0.272304	-112.569	-50.8309	-90.1781
 199	23	1	-0.443872	31.2956	-11.6333	11.5513
 200	23	3	-0.00226649	30.3948	-12.2702	12.52
 201	23	3	-0.0583719	31.1143	-13.6263	12.9137
 202	23	5	0.0710826	30.2588	-11.6865	13.3841
 203	23	5	0.0710826	29.4149	-12.4167	11.9891
 204	23	4	0.0300136	32.0424	-13.4321	13.4632
 205	23	4	0.0300136	30.5277	-14.132	13.6949
 206	23	4	0.0300136	31.3781	-14.2416	12.0276
 207	23	2	0.272304	32.1891	-12.0657	11.5595
 208	24	1	-0.443872	82.9715	-38.5589	-55.9151
 209	24	3	-0.00226649	81.6648	-38.0705	-55.7034
 210	24	3	-0.0583719	81.7078	-36.597	-55.1222
 211	24	5	0.0710826	81.2397	-37.975	-56.7115
 212	24	5	0.0710826	81.0217	-38.7304	-55.1151
 213	24	4	0.0300136	82.2359	-36.0111	-55.8832
 214	24	4	0.0300136	80.6318	-36.2003	-54.9412
 215	24	4	0.0300136	82.2341	-36.606	-54.1731
 216	24	2	0.272304	83.4995	-37.9023	-55.4511
 217	25	1	-0.443872	46.4157	-85.2233	101.984
 218	25	3	-0.00226649	46.8385	-84.0484	101.302
 219	25	3	-0.0583719	46.2785	-82.7778	101.982
 220	25	5	0.0710826	47.9199	-84.0995	101.291
 221	25	5	0.0710826	46.5075	-84.03	100.276
 222	25	4	0.0300136	46.5555	-82.7265	103.103
 223	25	4	0.0300136	46.7847	-81.9352	101.469
 224	25	4	0.0300136	45.1899	-82.6857	101.912
 225	25	2	0.272304	45.4495	-85.2725	102.102
 226	26	1	-0.443872	88.5389	50.219	-78.7529
 227	26	3	-0.00226649	87.7896	48.9748	-79.1465
 228	26	3	-0.0583719	88.7816	47.8247	-79.3026
 229	26	5	0.0710826	86.9936	48.8364	-78.4747
 230	26	5	0.0710826	87.4247	49.2847	-80.1116
 231	26	4	0.0300136	89.8481	48.1036	-79.2096
 232	26	4	0.0300136	88.6	46.9911	-78.6228
 233	26	4	0.0300136	88.5414	47.3598	-80.2174
 234	26	2	0.272304	87.8959	50.7896	-78.2899
 235	27	1	-0.443872	-32.739	62.1513	51.3442
 236	27	3	-0.00226649	-31.9972	60.9107	51.2245
 237	27	3	-0.0583719	-32.347	60.2117	49.853
 238	27	5	0.0710826	-30.9239	61.1114	51.2077
 239	27	5	0.0710826	-32.241	60.2035	52.0407
 240	27	4	0.0300136	-33.4242	60.0971	49.7477
 241	27	4	0.0300136	-31.8299	60.762	49.0075
 242	27	4	0.0300136	-31.9593	59.1843	49.7876
 243	27	2	0.272304	-33.5731	62.0463	50.7859
 244	28	1	-0.443872	-77.3539	82.49	115.858
 245	28	3	-0.00226649	-77.6509	82.1417	-116.798
 246	28	3	-0.0583719	-76.4555	81.3041	-116.222
 247	28	5	0.0710826	-77.7883	82.9996	-116.171
 248	28	5	0.0710826	-78.5089	81.5643	-116.792
 249	28	4	0.0300136	-75.8621	81.7397	-115.435
 250	28	4	0.0300136	-76.8847	80.3751	-115.773
 251	28	4	0.0300136	-75.7265	81.0363	117.007
 252	28	2	0.272304	-77.9752	83.2318	115.617
 253	29	1	-0.443872	92.0013	102.451	-55.4522
 254	29	3	-0.00226649	91.4209	102.954	-54.2351
 255	29	3	-0.0583719	92.0529	102.253	-53.0723
 256	29	5	0.0710826	91.6168	104.071	-54.1918
 257	29	5	0.0710826	90.3468	102.706	-54.1804
 258	29	4	0.0300136	93.1213	102.508	-53.0644
 259	29	4	0.0300136	91.628	102.725	-52.1447
 260	29	4	0.0300136	91.8212	101.221	-53.0494
 261	29	2	0.272304	91.5163	101.681	-55.7903
 262	30	1	-0.443872	78.6642	52.861	40.4962
 263	30	3	-0.00226649	77.2925	53.332	40.3172
 264	30	3	-0.0583719	76.4237	52.073	40.1137
 265	30	5	0.0710826	76.8984	53.8057	41.1353
 266	30	5	0.0710826	77.2373	54.115	39.5539
 267	30	4	0.0300136	77.0834	51.2165	40.4293
 268	30	4	0.0300136	75.5091	52.2352	40.7176
 269	30	4	0.0300136	76.2646	52.0526	39.0529
 270	30	2	0.272304	78.9296	52.4344	39.648
 271	31	1	-0.443872	-66.0106	100.041	5.02055
 272	31	3	-0.00226649	-67.2595	99.3102	5.17826
 273	31	3	-0.0583719	-67.2432	98.0473	4.30837
 274	31	5	0.0710826	-67.3851	99.0627	6.2274
 275	31	5	0.0710826	-68.198	99.8724	4.82325
 276	31	4	0.0300136	-66.4846	98.074	3.49179
 277	31	4	0.0300136	-66.8646	97.2072	4.89129
 278	31	4	0.0300136	-68.2441	97.8508	3.88407
 279	31	2	0.272304	-66.1534	100.705	4.33447
 280	32	1	-0.443872	92.4574	15.8583	115.912
 281	32	3	-0.00226649	92.8688	17.0025	116.626
 282	32	3	-0.0583719	91.8432	17.193	-116.315
 283	32	5	0.0710826	93.8543	16.8557	117.102
 284	32	5	0.0710826	92.8824	17.9217	115.963
 285	32	4	0.0300136	91.3923	16.2112	-116.002
 286	32	4	0.0300136	92.2104	17.8144	-115.406
 287	32	4	0.0300136	91.0221	17.8208	-116.779
 288	32	2	0.272304	91.8642	15.2399	116.434
 289	33	1	-0.443872	58.3116	45.9609	-68.2283
 290	33	3	-0.00226649	56.948	46.1664	-68.6263
 291	33	3	-0.0583719	56.5631	45.0803	-69.6056
 292	33	5	0.0710826	56.3094	46.01	-67.7427
 293	33	5	0.0710826	56.6998	47.1487	-69.1642
 294	33	4	0.0300136	56.8438	44.0698	-69.2104
 295	33	4	0.0300136	55.4407	45.1614	-69.6312
 296	33	4	0.0300136	57.1126	45.3508	-70.5408
 297	33	2	0.272304	58.3859	45.0024	-68.5327
 298	34	1	-0.443872	86.5769	-103.521	-75.4663
 299	34	3	-0.00226649	86.7757	-102.155	-75.5915
 300	34	3	-0.0583719	87.7276	-101.837	-76.7513
 301	34	5	0.0710826	85.7871	-101.671	-75.649
 302	34	5	0.0710826	87.2655	-101.823	-74.6116
 303	34	4	0.0300136	88.549	-101.204	-76.3512
 304	34	4	0.0300136	88.1941	-102.825	-77.1237
 305	34	4	0.0300136	87.128	-101.164	-77.4266
 306	34	2	0.272304	87.1811	-103.979	-76.0901
 307	35	1	-0.443872	-50.3544	-82.5327	53.5189
 308	35	3	-0.00226649	-49.0883	-82.5931	54.18
 309	35	3	-0.0583719	-48.413	-81.1606	54.2191
 310	35	5	0.0710826	-49.1688	-82.7622	55.2957
 311	35	5	0.0710826	-48.4334	-83.36	53.6824
 312	35	4	0.0300136	-47.7025	-81.1425	55.1062
 313	35	4	0.0300136	-47.9515	-80.8441	53.2534
 314	35	4	0.0300136	-49.1988	-80.4587	54.4507
 315	35	2	0.272304	-50.7877	-81.7804	53.9258
 316	36	1	-0.443872	-14.1456	-28.5076	-72.7659
 317	36	3	-0.00226649	-15.0078	-29.3355	-73.4824
 318	36	3	-0.0583719	-14.2513	-29.9987	-74.6668
 319	36	5	0.0710826	-15.5533	-30.0983	-72.9175
 320	36	5	0.0710826	-15.8185	-28.7713	-73.9755
 321	36	4	0.0300136	-15.0016	-30.1971	-75.4288
 322	36	4	0.0300136	-13.5265	-29.3454	-75.197
 323	36	4	0.0300136	-13.7954	-30.9526	-74.3482
 324	36	2	0.272304	-13.4635	-28.259	-73.4176
 325	37	1	-0.443872	-9.57589	11.1436	92.6307
 326	37	3	-0.00226649	-10.1919	11.8936	91.5466
 327	37	3	-0.0583719	-10.5045	13.3369	92.1298
 328	37	5	0.0710826	-9.57478	11.9743	90.6403
 329	37	5	0.0710826	-11.1114	11.4023	91.2171
 330	37	4	0.0300136	-9.57663	13.7866	92.62
 331	37	4	0.0300136	-10.8628	14.1036	91.3846
 332	37	4	0.0300136	-11.2587	13.2234	93.0135
 333	37	2	0.272304	-9.04401	11.762	93.1221
 334	38	1	-0.443872	-69.8325	-31.0443	92.1963
 335	38	3	-0.00226649	-68.4996	-30.4643	92.1358
 336	38	3	-0.0583719	-67.4074	-31.5308	92.0272
 337	38	5	0.0710826	-68.411	-29.8076	91.3296
 338	38	5	0.0710826	-68.3474	-29.8029	92.9874
 339	38	4	0.0300136	-66.8279	-31.4522	92.942
 340	38	4	0.0300136	-67.7542	-32.6107	92.0804
 341	38	4	0.0300136	-66.786	-31.3139	91.1515
 342	38	2	0.272304	-69.7375	-31.9732	92.4366
 343	39	1	-0.443872	18.2632	-67.4705	-54.0367
 344	39	3	-0.00226649	18.7309	-68.6908	-54.5958
 345	39	3	-0.0583719	18.5734	-69.8171	-53.4973
 346	39	5	0.0710826	18.1634	-68.9503	-55.5135
 347	39	5	0.0710826	19.7648	-68.4949	-54.8307
 348	39	4	0.0300136	18.6224	-70.8386	-53.9857
 349	39	4	0.0300136	19.5286	-69.8131	-52.9224
 350	39	4	0.0300136	17.7099	-69.5986	-52.8834
 351	39	2	0.272304	17.2943	-67.6128	-53.9562
 352	40	1	-0.443872	-50.0616	-19.8168	87.734
 353	40	3	-0.00226649	-49.5074	-18.7378	88.5346
 354	40	3	-0.0583719	-48.7262	-19.3141	89.7253
 355	40	5	0.0710826	-48.7464	-18.2036	87.9273
 356	40	5	0.0710826	-50.262	-18.103	88.8575
 357	40	4	0.0300136	-49.2711	-19.2614	90.7325
 358	40	4	0.0300136	-48.2631	-20.2654	89.5022
 359	40	4	0.0300136	-47.8917	-18.6216	89.8492
 360	40	2	0.272304	-50.577	-20.4289	88.2931
 361	41	1	-0.443872	-20.5616	-75.7334	74.2009
 362	41	3	-0.00226649	-20.1029	-76.3398	72.9691
 363	41	3	-0.0583719	-19.1232	-77.3986	73.2462
 364	41	5	0.0710826	-20.9683	-76.8595	72.5492
 365	41	5	0.0710826	-19.7174	-75.6322	72.2747
 366	41	4	0.0300136	-18.1403	-76.8967	73.358
 367	41	4	0.0300136	-19.4233	-78.0448	74.0876
 368	41	4	0.0300136	-19.0342	-78.0937	72.373
 369	41	2	0.272304	-20.8729	-76.4702	74.7851
 370	42	1	-0.443872	-53.957	78.3803	-72.4842
 371	42	3	-0.00226649	-53.5562	78.4692	-71.0669
 372	42	3	-0.0583719	-51.9983	78.2768	-70.8882
 373	42	5	0.0710826	-53.8655	79.3902	-70.4764
 374	42	5	0.0710826	-54.0007	77.5817	-70.5896
 375	42	4	0.0300136	-51.6447	77.2519	-71.0786
 376	42	4	0.0300136	-51.5363	78.9724	-71.6522
 377	42	4	0.0300136	-51.6763	78.6209	-69.9088
 378	42	2	0.272304	-53.928	77.4269	-72.6916
 379	43	1	-0.443872	-11.4758	-57.8533	80.4154
 380	43	3	-0.00226649	-12.7852	-57.4854	79.9761
 381	43	3	-0.0583719	-13.2333	-56.3032	80.8996
 382	43	5	0.0710826	-12.6431	-56.9744	78.986
 383	43	5	0.0710826	-13.4872	-58.3078	79.8205
 384	43	4	0.0300136	-12.4603	-55.7083	81.4764
 385	43	4	0.0300136	-14.0361	-56.5421	81.5514
 386	43	4	0.0300136	-13.7968	-55.5885	80.2393
 387	43	2	0.272304	-11.0787	-57.0851	80.8711
 388	44	1	-0.443872	-68.3313	-54.7276	-53.2895
 389	44	3	-0.00226649	-67.0589	-54.1207	-53.2556
 390	44	3	-0.0583719	-66.9731	-53.1595	-52.086
 391	44	5	0.0710826	-66.2654	-54.8874	-53.1901
 392	44	5	0.0710826	-66.9477	-53.5058	-54.1271
 393	44	4	0.0300136	-65.9007	-52.9775	-51.728
 394	44	4	0.0300136	-67.4514	-52.2032	-52.2958
 395	44	4	0.0300136	-67.6092	-53.5979	-51.292
 396	44	2	0.272304	-68.8235	-54.478	-52.5084
 397	45	1	-0.443872	-95.0358	71.5905	-90.2969
 398	45	3	-0.00226649	-95.3832	71.7991	-88.9421
 399	45	3	-0.0583719	-95.9938	73.2055	-88.7838
 400	45	5	0.0710826	-96.1451	71.0949	-88.5816
 401	45	5	0.0710826	-94.5023	71.8294	-88.3259
 402	45	4	0.0300136	-96.8622	73.362	-89.4229
 403	45	4	0.0300136	-96.3175	73.5119	-87.7356
 404	45	4	0.0300136	-95.2376	73.9374	-89.1943
 405	45	2	0.272304	-95.5219	70.8146	-90.6748
 406	46	1	-0.443872	114.829	13.4597	43.8404
 407	46	3	-0.00226649	114.86	12.0123	44.1089
 408	46	3	-0.0583719	116.327	11.5497	44.2919
 409	46	5	0.0710826	114.303	11.847	45.0357
 410	46	5	0.0710826	114.271	11.4875	43.2837
 411	46	4	0.0300136	-117.061	11.8357	43.4654
 412	46	4	0.0300136	116.731	11.9337	45.1816
 413	46	4	0.0300136	116.197	10.4675	44.4462
 414	46	2	0.272304	115.698	13.7992	43.3567
 415	47	1	-0.443872	-9.04965	116.008	-19.1888
 416	47	3	-0.00226649	-7.74277	116.231	-18.6964
 417	47	3	-0.0583719	-6.65089	116.288	-19.7947
 418	47	5	0.0710826	-7.6719	-116.851	-18.0457
 419	47	5	0.0710826	-7.48957	115.385	-18.0004
 420	47	4	0.0300136	-5.6757	116.323	-19.289
 421	47	4	0.0300136	-6.72867	115.405	-20.409
 422	47	4	0.0300136	-6.66816	-116.808	-20.4752
 423	47	2	0.272304	-9.15349	116.553	-19.9737
 424	48	1	-0.443872	33.695	26.3775	-1.754
 425	48	3	-0.00226649	33.3558	25.085	-2.10101
 426	48	3	-0.0583719	32.2509	24.5653	-1.1657
 427	48	5	0.0710826	32.8329	25.1742	-3.05333
 428	48	5	0.0710826	34.2928	24.5333	-2.16217
 429	48	4	0.0300136	31.6584	23.6883	-1.6719
 430	48	4	0.0300136	32.7775	24.2189	-0.265174
 431	48	4	0.0300136	31.5441	25.4018	-0.876655
 432	48	2	0.272304	32.9109	26.7079	-1.26912
 433	49	1	-0.443872	103.015	25.8918	-50.0697
 434	49	3	-0.00226649	101.714	25.4818	-49.5855
 435	49	3	-0.0583719	100.575	25.743	-50.5462
 436	49	5	0.0710826	101.789	24.4022	-49.3299
 437	49	5	0.0710826	101.468	26.0352	-48.6617
 438	49	4	0.0300136	99.747	25.2301	-50.1798
 439	49	4	0.0300136	100.282	26.7899	-50.6529
 440	49	4	0.0300136	100.842	25.3246	-51.509
 441	49	2	0.272304	103.65	25.1865	-50.0026
 442	50	1	-0.443872	1.27388	33.8413	63.2743
 443	50	3	-0.00226649	0.306326	34.6341	64.0417
 444	50	3	-0.0583719	0.907494	35.9932	64.4893
 445	50	5	0.0710826	-0.547721	34.9137	63.4777
 446	50	5	0.0710826	-0.107831	33.9832	64.8295
 447	50	4	0.0300136	1.74808	35.8872	65.1712
 448	50	4	0.0300136	1.11106	36.4479	63.5175
 449	50	4	0.0300136	0.130501	36.5601	65.0399
 450	50	2	0.272304	1.41072	34.216	62.3871
 451	51	1	-0.443872	42.9874	6.78973	-85.7683
 452	51	3	-0.00226649	44.1332	7.4613	-86.2542
 453	51	3	-0.0583719	45.4535	6.63393	-85.9326
 454	51	5	0.0710826	43.9925	7.76963	-87.3233
 455	51	5	0.0710826	44.1927	8.40295	-85.7579
 456	51	4	0.0300136	45.85	7.02301	-85.0373
 457	51	4	0.0300136	45.2454	5.56328	-85.8901
 458	51	4	0.0300136	46.3235	6.75808	-86.7654
 459	51	2	0.272304	42.622	7.31713	-84.9885
 460	52	1	-0.443872	-96.0879	-24.2631	44.3676
 461	52	3	-0.00226649	-95.5448	-25.6152	44.5921
 462	52	3	-0.0583719	-94.709	-25.7347	45.9552
 463	52	5	0.0710826	-96.3959	-26.2989	44.5934
 464	52	5	0.0710826	-94.8875	-25.8098	43.7428
 465	52	4	0.0300136	-94.7291	-24.7965	46.4627
 466	52	4	0.0300136	-95.2321	-26.4678	46.5937
 467	52	4	0.0300136	-93.7585	-26.3194	45.8718
 468	52	2	0.272304	-96.5828	-24.3824	43.5355
 469	53	1	-0.443872	18.3535	27.5821	6.10224
 470	53	3	-0.00226649	19.431	27.1286	5.30424
 471	53	3	-0.0583719	19.4152	25.5973	5.15864
 472	53	5	0.0710826	19.4606	27.6692	4.28643
 473	53	5	0.0710826	20.3015	27.3914	5.82317
 474	53	4	0.0300136	18.9874	25.2867	4.25958
 475	53	4	0.0300136	20.438	25.1722	5.12481
 476	53	4	0.0300136	18.9342	25.1494	6.04078
 477	53	2	0.272304	18.7016	28.1912	6.75942
 478	54	1	-0.443872	-37.6571	95.4266	-33.5466
 479	54	3	-0.00226649	-37.0867	96.1315	-34.6521
 480	54	3	-0.0583719	-37.3146	97.6753	-34.4377
 481	54	5	0.0710826	-36.0049	95.9719	-34.7612
 482	54	5	0.0710826	-37.5148	95.6963	-35.5444
 483	54	4	0.0300136	-38.272	97.9663	-34.874
 484	54	4	0.0300136	-37.0572	97.967	-33.4097
 485	54	4	0.0300136	-36.4357	98.168	-34.8733
 486	54	2	0.272304	-36.9937	95.4143	-32.7903
 487	55	1	-0.443872	-44.5361	-98.1602	-57.9
 488	55	3	-0.00226649	-45.6168	-97.6822	-57.0775
 489	55	3	-0.0583719	-45.4216	-98.2711	-55.659
 490	55	5	0.0710826	-45.5698	-96.579	-57.0336
 491	55	5	0.0710826	-46.5652	-98.1114	-57.488
 492	55	4	0.0300136	-44.3623	-98.2411	-55.4142
 493	55	4	0.0300136	-46.0346	-97.6726	-54.9972
 494	55	4	0.0300136	-45.8595	-99.2805	-55.6243
 495	55	2	0.272304	-44.0429	-97.4606	-58.3704
 496	56	1	-0.443872	107.481	89.8091	113.664
 497	56	3	-0.00226649	106.846	89.2376	112.533
 498	56	3	-0.0583719	106.039	90.3773	111.825
 499	56	5	0.0710826	107.471	88.9099	111.701
 500	56	5	0.0710826	106.181	88.4294	112.806
 501	56	4	0.0300136	106.002	90.211	110.71
 502	56	4	0.0300136	104.99	90.5537	112.197
 503	56	4	0.0300136	106.522	91.3434	111.86
 504	56	2	0.272304	107.963	89.107	114.155
 505	57	1	-0.443872	58.7835	-110.23	115.395
 506	57	3	-0.00226649	59.0637	-110.883	116.657
 507	57	3	-0.0583719	58.6627	-109.97	-116.16
 508	57	5	0.0710826	58.459	-111.815	116.67
 509	57	5	0.0710826	60.117	-111.181	116.825
 510	57	4	0.0300136	58.4109	-110.605	-115.258
 511	57	4	0.0300136	59.5027	-109.371	-115.846
 512	57	4	0.0300136	57.747	-109.32	-116.502
 513	57	2	0.272304	58.3711	-110.941	114.887
 514	58	1	-0.443872	11.3475	47.3893	-34.5429
 515	58	3	-0.00226649	10.4506	46.509	-35.1706
 516	58	3	-0.0583719	9.01269	47.0904	-35.0447
 517	58	5	0.0710826	10.6577	46.3892	-36.2568
 518	58	5	0.0710826	10.5259	45.5298	-34.751
 519	58	4	0.0300136	8.75424	47.2758	-33.9741
 520	58	4	0.0300136	8.88467	48.0631	-35.5253
 521	58	4	0.0300136	8.30235	46.3448	-35.3789
 522	58	2	0.272304	11.3863	47.1767	-33.5994
 523	59	1	-0.443872	-72.1065	-105.977	22.4885
 524	59	3	-0.00226649	-71.6994	-104.651	22.6967
 525	59	3	-0.0583719	-72.6507	-103.958	23.6522
 526	59	5	0.0710826	-70.7145	-104.559	23.1713
 527	59	5	0.0710826	-71.7237	-104.112	21.7089
 528	59	4	0.0300136	-72.551	-104.245	24.7146
 529	59	4	0.0300136	-72.5073	-102.872	23.6627
 530	59	4	0.0300136	-73.6778	-104.065	23.2839
 531	59	2	0.272304	-72.9917	-106.157	22.8301
 532	60	1	-0.443872	-52.2714	-85.5949	-97.2321
 533	60	3	-0.00226649	-51.1204	-85.6956	-97.9377
 534	60	3	-0.0583719	-50.0416	-84.6455	-97.5429
 535	60	5	0.0710826	-50.6296	-86.664	-97.7016
 536	60	5	0.0710826	-51.3383	-85.7192	-99.0198
 537	60	4	0.0300136	-50.365	-83.6688	-97.4232
 538	60	4	0.0300136	-49.6607	-85.0153	-96.5731
 539	60	4	0.0300136	-49.1537	-84.5674	-98.1646
 540	60	2	0.272304	-52.8799	-84.9821	-97.6054
 541	61	1	-0.443872	74.3065	69.0541	37.5695
 542	61	3	-0.00226649	74.5698	69.9846	38.6189
 543	61	3	-0.0583719	75.5234	71.039	38.1639
 544	61	5	0.0710826	73.6489	70.4929	38.9135
 545	61	5	0.0710826	75.0658	69.4671	39.4712
 546	61	4	0.0300136	75.6187	71.7676	38.9796
 547	61	4	0.0300136	76.4829	70.5274	38.0549
 548	61	4	0.0300136	75.3877	71.406	37.1314
 549	61	2	0.272304	73.7192	69.3686	36.8989
 550	62	1	-0.443872	50.052	69.7042	-1.9339
 551	62	3	-0.00226649	51.2383	68.8797	-1.78664
 552	62	3	-0.0583719	52.4818	69.6669	-2.21471
 553	62	5	0.0710826	51.2433	68.4958	-0.719021
 554	62	5	0.0710826	51.1147	68.0498	-2.38109
 555	62	4	0.0300136	52.1516	70.2241	-3.116
 556	62	4	0.0300136	52.7974	70.2449	-1.35103
 557	62	4	0.0300136	53.3666	69.0392	-2.47536
 558	62	2	0.272304	50.1853	70.2877	-2.72422
 559	63	1	-0.443872	-47.6219	22.175	82.3001
 560	63	3	-0.00226649	-46.5874	21.5299	82.9175
 561	63	3	-0.0583719	-47.2069	20.1509	83.2466
 562	63	5	0.0710826	-45.6653	21.4666	82.3813
 563	63	5	0.0710826	-46.309	22.0038	83.84
 564	63	4	0.0300136	-47.0265	19.8453	84.286
 565	63	4	0.0300136	-48.248	19.9526	83.0549
 566	63	4	0.0300136	-46.6801	19.3917	82.7583
 567	63	2	0.272304	-48.1345	21.4332	81.9814
 568	64	1	-0.443872	55.3835	-89.9297	-92.447
 569	64	3	-0.00226649	55.3805	-91.3911	-92.1457
 570	64	3	-0.0583719	54.1837	-91.8082	-91.4787
 571	64	5	0.0710826	55.5089	-91.983	-93.019
 572	64	5	0.0710826	56.2253	-91.6434	-91.5042
 573	64	4	0.0300136	54.277	-92.8734	-91.1936
 574	64	4	0.0300136	54.0489	-91.198	-90.5992
 575	64	4	0.0300136	53.3721	-91.7148	-92.1706
 576	64	2	0.272304	54.4843	-89.5717	-92.2287
 577	65	1	-0.443872	-68.6162	111.277	77.1566
 578	65	3	-0.00226649	-69.6274	110.381	76.631
 579	65	3	-0.0583719	-70.7316	111.238	76.068
 580	65	5	0.0710826	-69.199	109.771	75.8233
 581	65	5	0.0710826	-69.9939	109.645	77.389
 582	65	4	0.0300136	-70.3145	111.837	75.2225
 583	65	4	0.0300136	-71.5868	110.615	75.6594
 584	65	4	0.0300136	-71.1272	111.968	76.8074
 585	65	2	0.272304	-68.4397	111.042	78.0714
 586	66	1	-0.443872	38.9684	92.1627	61.5728
 587	66	3	-0.00226649	39.0842	90.8035	61.9057
 588	66	3	-0.0583719	37.7874	90.1505	62.3779
 589	66	5	0.0710826	39.4554	90.2758	61.0388
 590	66	5	0.0710826	39.8691	90.6479	62.6085
 591	66	4	0.0300136	37.1076	90.9556	62.4531
 592	66	4	0.0300136	37.2955	89.4099	61.7076
 593	66	4	0.0300136	37.9815	89.6742	63.3136
 594	66	2	0.272304	39.8247	92.4234	61.2834
 595	67	1	-0.443872	56.2757	46.4139	-95.0952
 596	67	3	-0.00226649	55.2864	45.7437	-94.3814
 597	67	3	-0.0583719	55.6374	45.5698	-92.8279
 598	67	5	0.0710826	54.2824	46.3296	-94.3742
 599	67	5	0.0710826	55.0022	44.7193	-94.7486
 600	67	4	0.0300136	55.6732	44.55	-92.3692
 601	67	4	0.0300136	56.6508	46.0837	-92.5748
 602	67	4	0.0300136	54.8068	46.0623	-92.3607
 603	67	2	0.272304	56.2317	46.0999	-96.0064
 604	68	1	-0.443872	25.5204	-27.2902	75.148
 605	68	3	-0.00226649	24.1592	-27.1159	75.4889
 606	68	3	-0.0583719	23.5023	-28.4764	75.5789
 607	68	5	0.0710826	24.1552	-26.6775	76.4954
 608	68	5	0.0710826	23.5428	-26.6611	74.6691
 609	68	4	0.0300136	23.2426	-28.702	76.6407
 610	68	4	0.0300136	22.4908	-28.4585	75.1364
 611	68	4	0.0300136	24.0548	-29.3283	75.0518
 612	68	2	0.272304	25.8223	-28.1162	75.5248
 613	69	1	-0.443872	-6.43632	108.484	-41.6607
 614	69	3	-0.00226649	-7.27052	107.336	-41.7229
 615	69	3	-0.0583719	-6.50453	106.141	-41.0722
 616	69	5	0.0710826	-8.1782	107.625	-41.0696
 617	69	5	0.0710826	-7.65227	107.111	-42.7314
 618	69	4	0.0300136	-5.59808	106.415	-40.5335
 619	69	4	0.0300136	-7.15919	105.602	-40.3532
 620	69	4	0.0300136	-6.17527	105.374	-41.7952
 621	69	2	0.272304	-5.79523	108.387	-42.3932
 622	70	1	-0.443872	37.7671	-63.2013	111.766
 623	70	3	-0.00226649	38.2749	-64.4685	111.252
 624	70	3	-0.0583719	39.298	-65.0263	112.248
 625	70	5	0.0710826	37.522	-65.212	111.084
 626	70	5	0.0710826	38.8422	-64.3509	110.342
 627	70	4	0.0300136	38.8877	-64.8198	113.238
 628	70	4	0.0300136	39.3192	-66.1378	112.05
 629	70	4	0.0300136	40.2807	-64.6083	112.15
 630	70	2	0.272304	37.8787	-62.4579	111.097
 631	71	1	-0.443872	-63.1608	-87.7926	109.402
 632	71	3	-0.00226649	-62.3468	-87.9816	108.254
 633	71	3	-0.0583719	-63.1509	-88.0508	106.95
 634	71	5	0.0710826	-61.6371	-87.141	108.147