pySIMM System Object

4700 atoms
4200 bonds
6900 angles
6000 dihedrals
200 impropers

7 atom types
7 bond types
10 angle types
6 dihedral types
1 improper types

-26.014393 26.014393 xlo xhi
-26.014393 26.014393 ylo yhi
-26.014393 26.014393 zlo zhi

Masses

   1	16.0	# oh
   2	1.008	# ho
   3	12.01	# c3
   4	1.008	# hc
   5	1.008	# h1
   6	16.0	# o
   7	12.01	# c

Pair Coeffs

   1	0.093	3.24287133403	# oh
   2	0.0047	0.537924646013	# ho
   3	0.1078	3.39770953124	# c3
   4	0.0208	2.60017699876	# hc
   5	0.0208	2.42199725514	# h1
   6	0.1463	3.04812087425	# o
   7	0.0988	3.31521230994	# c

Bond Coeffs

   1	375.92	1.097	# c3,h1
   2	375.92	1.097	# c3,hc
   3	232.52	1.538	# c3,c3
   4	293.4	1.423	# c3,oh
   5	563.51	0.973	# ho,oh
   6	243.22	1.524	# c,c3
   7	652.57	1.218	# c,o

Angle Coeffs

   1	38.802	108.46	# h1,c3,h1
   2	46.816	109.8	# c3,c3,hc
   3	46.868	109.56	# c3,c3,h1
   4	84.642	110.19	# c3,c3,oh
   5	38.96	107.58	# hc,c3,hc
   6	62.54	110.26	# h1,c3,oh
   7	49.027	107.26	# c3,oh,ho
   8	47.411	108.77	# c,c3,hc
   9	84.552	123.2	# c3,c,o
  10	64.041	116.5	# c3,c,c3

Dihedral Coeffs

   1	1	0.113	1	3	# ho,oh,c3,h1
   2	1	0.155555555556	1	3	# X,c3,c3,X
   3	1	0.0	1	3	# ho,oh,c3,c3
   4	2	0.18	1	3	0.51	1	1	# hc,c3,c3,oh
   5	2	0.83	1	1	0.04	-1	3	# o,c,c3,hc
   6	1	0.0	1	2	# hc,c3,c,c3

Improper Coeffs

   1	10.5	-1	2	# c,X,X,o

Atoms

   1	1	1	-0.443872	0.942725	8.38758	-9.98869
   2	1	3	-0.00226649	1.31052	9.75231	-9.78047
   3	1	3	-0.0583719	0.291421	10.6874	-10.5054
   4	1	5	0.0710826	1.36345	9.94919	-8.68481
   5	1	5	0.0710826	2.31051	9.88147	-10.2121
   6	1	4	0.0300136	-0.714882	10.5251	-10.0869
   7	1	4	0.0300136	0.510694	11.766	-10.3692
   8	1	4	0.0300136	0.216071	10.4732	-11.5802
   9	1	2	0.272304	0.0852656	8.28285	-10.4392
  10	2	1	-0.443872	17.2748	23.6507	-2.97577
  11	2	3	-0.00226649	17.0263	24.2535	-1.73965
  12	2	3	-0.0583719	16.3281	25.6228	-1.96104
  13	2	5	0.0710826	16.4514	23.6241	-1.11021
  14	2	5	0.0710826	17.9522	24.4434	-1.18837
  15	2	4	0.0300136	17.0883	-25.6589	-2.06782
  16	2	4	0.0300136	15.7078	25.5711	-2.83749
  17	2	4	0.0300136	15.7389	25.8943	-1.09645
  18	2	2	0.272304	18.2341	23.7283	-3.13041
  19	3	1	-0.443872	-12.8504	9.51668	1.40566
  20	3	3	-0.00226649	-12.9835	8.37967	2.29677
  21	3	3	-0.0583719	-12.9442	8.76903	3.80927
  22	3	5	0.0710826	-13.9131	7.84211	2.06518
  23	3	5	0.0710826	-12.1993	7.63956	2.09355
  24	3	4	0.0300136	-13.3649	7.97491	4.41327
  25	3	4	0.0300136	-11.9314	8.96155	4.16101
  26	3	4	0.0300136	-13.4583	9.70311	4.04953
  27	3	2	0.272304	-12.5744	10.2725	1.95149
  28	4	1	-0.443872	3.94537	20.9854	1.37441
  29	4	3	-0.00226649	2.87321	20.0207	1.26823
  30	4	3	-0.0583719	3.33637	19.0074	0.231424
  31	4	5	0.0710826	2.68056	19.4882	2.20996
  32	4	5	0.0710826	1.9181	20.4716	0.931266
  33	4	4	0.0300136	2.88655	18.0083	0.389323
  34	4	4	0.0300136	3.1378	19.2797	-0.814811
  35	4	4	0.0300136	4.41624	18.8898	0.292052
  36	4	2	0.272304	4.56805	20.8044	0.661268
  37	5	1	-0.443872	11.1549	-18.2473	-15.4788
  38	5	3	-0.00226649	11.8605	-17.557	-14.4527
  39	5	3	-0.0583719	12.36	-18.5208	-13.315
  40	5	5	0.0710826	12.7502	-17.0427	-14.854
  41	5	5	0.0710826	11.2565	-16.7494	-13.9985
  42	5	4	0.0300136	13.433	-18.739	-13.3614
  43	5	4	0.0300136	12.0904	-18.0924	-12.3298
  44	5	4	0.0300136	11.8833	-19.5223	-13.4047
  45	5	2	0.272304	10.9398	-19.1358	-15.1359
  46	6	1	-0.443872	-21.5624	-12.8202	11.4195
  47	6	3	-0.00226649	-22.2467	-13.8709	12.0231
  48	6	3	-0.0583719	-21.2886	-14.6322	12.9861
  49	6	5	0.0710826	-23.1341	-13.4611	12.5595
  50	6	5	0.0710826	-22.6933	-14.5684	11.2817
  51	6	4	0.0300136	-20.7965	-13.9547	13.6663
  52	6	4	0.0300136	-21.8588	-15.347	13.5822
  53	6	4	0.0300136	-20.5319	-15.1603	12.4264
  54	6	2	0.272304	-20.7059	-12.7327	11.8805
  55	7	1	-0.443872	-3.3318	22.4559	-4.74888
  56	7	3	-0.00226649	-2.08921	22.232	-4.00451
  57	7	3	-0.0583719	-1.48951	23.5731	-3.51373
  58	7	5	0.0710826	-2.25652	21.5202	-3.17558
  59	7	5	0.0710826	-1.34118	21.7676	-4.64105
  60	7	4	0.0300136	-2.21425	24.3702	-3.27921
  61	7	4	0.0300136	-0.881032	23.4298	-2.6041
  62	7	4	0.0300136	-0.762159	23.9242	-4.26369
  63	7	2	0.272304	-3.28681	21.9575	-5.59497
  64	8	1	-0.443872	10.756	-10.9387	8.5292
  65	8	3	-0.00226649	10.9627	-12.2858	7.95728
  66	8	3	-0.0583719	9.67332	-13.0862	7.60735
  67	8	5	0.0710826	11.6186	-12.2341	7.06521
  68	8	5	0.0710826	11.4872	-12.8961	8.72206
  69	8	4	0.0300136	9.86499	-14.151	7.57983
  70	8	4	0.0300136	8.8333	-12.8893	8.32901
  71	8	4	0.0300136	9.2372	-12.8189	6.68246
  72	8	2	0.272304	10.8655	-10.3463	7.76198
  73	9	1	-0.443872	-21.2652	-1.35621	3.33209
  74	9	3	-0.00226649	-19.9076	-1.55258	3.55742
  75	9	3	-0.0583719	-19.3618	-2.65818	2.58172
  76	9	5	0.0710826	-19.3695	-0.619697	3.3948
  77	9	5	0.0710826	-19.8084	-1.90684	4.58267
  78	9	4	0.0300136	-19.513	-3.65467	3.02475
  79	9	4	0.0300136	-19.8714	-2.71124	1.57483
  80	9	4	0.0300136	-18.2634	-2.52526	2.34415
  81	9	2	0.272304	-21.8043	-1.96246	3.82708
  82	10	1	-0.443872	10.5276	-20.8947	2.416
  83	10	3	-0.00226649	10.7837	-22.2153	2.04423
  84	10	3	-0.0583719	11.2011	-23.0478	3.27458
  85	10	5	0.0710826	9.83878	-22.5937	1.62696
  86	10	5	0.0710826	11.5766	-22.283	1.25157
  87	10	4	0.0300136	12.1447	-22.6729	3.71458
  88	10	4	0.0300136	10.4283	-22.9742	4.04387
  89	10	4	0.0300136	11.3653	-24.0789	2.98353
  90	10	2	0.272304	11.0333	-20.7666	3.24992
  91	11	1	-0.443872	-25.7737	-20.6155	20.3301
  92	11	3	-0.00226649	-24.656	-19.7255	20.054
  93	11	3	-0.0583719	-24.0092	-19.9524	18.6944
  94	11	5	0.0710826	-25.0593	-18.6992	20.0513
  95	11	5	0.0710826	-23.9198	-19.8517	20.8784
  96	11	4	0.0300136	-23.2704	-19.125	18.5803
  97	11	4	0.0300136	-23.5159	-20.936	18.6429
  98	11	4	0.0300136	-24.7639	-19.8368	17.8822
  99	11	2	0.272304	-25.5953	-21.5515	20.1464
 100	12	1	-0.443872	25.709	0.775758	24.8066
 101	12	3	-0.00226649	-25.9262	1.02357	23.4397
 102	12	3	-0.0583719	25.0886	0.252346	22.5464
 103	12	5	0.0710826	-25.9434	2.13623	23.252
 104	12	5	0.0710826	-24.9558	0.579039	23.2604
 105	12	4	0.0300136	25.2492	-0.832781	22.633
 106	12	4	0.0300136	24.0603	0.409716	22.9262
 107	12	4	0.0300136	25.2114	0.49184	21.5038
 108	12	2	0.272304	25.3081	-0.134398	24.828
 109	13	1	-0.443872	-1.03099	-23.7538	-10.8081
 110	13	3	-0.00226649	-1.5753	-22.4428	-10.6791
 111	13	3	-0.0583719	-2.86872	-22.4678	-9.83408
 112	13	5	0.0710826	-0.863528	-21.804	-10.1683
 113	13	5	0.0710826	-1.6763	-22.0217	-11.6707
 114	13	4	0.0300136	-3.67526	-21.9539	-10.3863
 115	13	4	0.0300136	-3.22753	-23.4867	-9.6399
 116	13	4	0.0300136	-2.70884	-21.9991	-8.86925
 117	13	2	0.272304	-1.31274	-24.0888	-11.6637
 118	14	1	-0.443872	24.3579	-14.406	-2.43391
 119	14	3	-0.00226649	23.2444	-15.3623	-2.35219
 120	14	3	-0.0583719	22.8088	-15.6568	-0.860883
 121	14	5	0.0710826	22.3888	-14.957	-2.96985
 122	14	5	0.0710826	23.5299	-16.3505	-2.77278
 123	14	4	0.0300136	23.1148	-14.8674	-0.172137
 124	14	4	0.0300136	21.7028	-15.7604	-0.892698
 125	14	4	0.0300136	23.195	-16.622	-0.499172
 126	14	2	0.272304	24.5298	-14.2504	-1.48839
 127	15	1	-0.443872	-14.9488	16.5149	-10.5615
 128	15	3	-0.00226649	-16.0579	16.0571	-11.3526
 129	15	3	-0.0583719	-17.358	16.717	-10.8702
 130	15	5	0.0710826	-15.9614	16.2326	-12.4184
 131	15	5	0.0710826	-16.1059	14.9869	-11.2182
 132	15	4	0.0300136	-17.4615	16.5363	-9.80734
 133	15	4	0.0300136	-17.2472	17.7821	-11.0382
 134	15	4	0.0300136	-18.1984	16.3163	-11.4178
 135	15	2	0.272304	-14.6911	17.4084	-10.8644
 136	16	1	-0.443872	0.864395	13.2558	-14.5849
 137	16	3	-0.00226649	1.90045	13.5136	-15.5462
 138	16	3	-0.0583719	2.25475	12.3001	-16.4509
 139	16	5	0.0710826	1.58278	14.3795	-16.1696
 140	16	5	0.0710826	2.78092	13.9179	-15.0163
 141	16	4	0.0300136	2.76705	12.5834	-17.3521
 142	16	4	0.0300136	3.06332	11.6002	-16.0355
 143	16	4	0.0300136	1.4481	11.6227	-16.7351
 144	16	2	0.272304	0.390561	14.0672	-14.4472
 145	17	1	-0.443872	20.8048	9.26362	-11.2728
 146	17	3	-0.00226649	22.0168	9.28143	-10.5983
 147	17	3	-0.0583719	21.841	9.78294	-9.12944
 148	17	5	0.0710826	22.4488	8.28054	-10.6557
 149	17	5	0.0710826	22.665	9.95328	-11.1788
 150	17	4	0.0300136	21.6275	10.8435	-9.08477
 151	17	4	0.0300136	20.9667	9.31396	-8.66633
 152	17	4	0.0300136	22.7259	9.6115	-8.51552
 153	17	2	0.272304	20.9602	9.49915	-12.2035
 154	18	1	-0.443872	-6.12492	-13.8123	-6.04148
 155	18	3	-0.00226649	-7.16922	-12.8933	-6.48263
 156	18	3	-0.0583719	-7.22749	-11.6078	-5.57211
 157	18	5	0.0710826	-7.07136	-12.5209	-7.50924
 158	18	5	0.0710826	-8.17552	-13.3465	-6.43918
 159	18	4	0.0300136	-7.06499	-10.7082	-6.20747
 160	18	4	0.0300136	-8.16542	-11.6011	-4.96177
 161	18	4	0.0300136	-6.40943	-11.6397	-4.81804
 162	18	2	0.272304	-5.75738	-13.4537	-5.23121
 163	19	1	-0.443872	7.92379	-22.4647	-22.8058
 164	19	3	-0.00226649	8.22002	-22.6866	-21.42
 165	19	3	-0.0583719	9.06797	-23.9858	-21.1621
 166	19	5	0.0710826	8.74754	-21.7889	-21.0722
 167	19	5	0.0710826	7.24596	-22.7411	-20.8517
 168	19	4	0.0300136	10.1343	-23.7439	-20.9546
 169	19	4	0.0300136	8.66786	-24.4629	-20.2314
 170	19	4	0.0300136	8.87807	-24.6916	-21.973
 171	19	2	0.272304	8.52989	-22.9579	-23.3642
 172	20	1	-0.443872	-2.06085	19.8496	-21.3638
 173	20	3	-0.00226649	-3.17476	20.6629	-21.7081
 174	20	3	-0.0583719	-4.31133	20.3214	-20.7389
 175	20	5	0.0710826	-2.95271	21.7307	-21.6181
 176	20	5	0.0710826	-3.49009	20.471	-22.7497
 177	20	4	0.0300136	-5.04463	19.6985	-21.2719
 178	20	4	0.0300136	-3.91397	19.8628	-19.8316
 179	20	4	0.0300136	-4.81915	21.252	-20.4628
 180	20	2	0.272304	-1.58861	20.3336	-20.6638
 181	21	1	-0.443872	-12.3991	-18.3836	-13.8886
 182	21	3	-0.00226649	-12.2429	-17.5684	-15.0399
 183	21	3	-0.0583719	-11.5309	-16.2597	-14.7922
 184	21	5	0.0710826	-11.6611	-18.1776	-15.7487
 185	21	5	0.0710826	-13.2123	-17.3072	-15.4626
 186	21	4	0.0300136	-12.1399	-15.4594	-15.2879
 187	21	4	0.0300136	-11.4874	-16.032	-13.6671
 188	21	4	0.0300136	-10.5423	-16.2471	-15.3145
 189	21	2	0.272304	-11.99	-19.2589	-13.9473
 190	22	1	-0.443872	24.4508	-18.9348	-10.3216
 191	22	3	-0.00226649	25.2025	-17.8447	-10.8816
 192	22	3	-0.0583719	24.9018	-16.4909	-10.1726
 193	22	5	0.0710826	-25.7455	-18.0414	-10.8015
 194	22	5	0.0710826	24.9734	-17.8345	-11.9477
 195	22	4	0.0300136	24.8313	-16.7364	-9.10126
 196	22	4	0.0300136	25.7314	-15.7774	-10.3655
 197	22	4	0.0300136	23.9829	-16.0603	-10.5954
 198	22	2	0.272304	25.1244	-19.5789	-10.0343
 199	23	1	-0.443872	-21.464	10.0294	4.98352
 200	23	3	-0.00226649	-22.511	10.5019	5.86504
 201	23	3	-0.0583719	-22.4118	9.62829	7.10887
 202	23	5	0.0710826	-22.3755	11.5599	6.11774
 203	23	5	0.0710826	-23.5159	10.478	5.37507
 204	23	4	0.0300136	-23.2248	10.006	7.69755
 205	23	4	0.0300136	-22.548	8.53965	6.89694
 206	23	4	0.0300136	-21.4925	9.8004	7.70997
 207	23	2	0.272304	-20.8221	9.77115	5.67221
 208	24	1	-0.443872	24.6435	12.6432	-4.44453
 209	24	3	-0.00226649	23.4155	13.3787	-4.42224
 210	24	3	-0.0583719	22.9915	13.9941	-5.78574
 211	24	5	0.0710826	22.6282	12.7149	-4.10172
 212	24	5	0.0710826	23.488	14.1769	-3.66098
 213	24	4	0.0300136	23.6801	14.8181	-6.06014
 214	24	4	0.0300136	22.9231	13.2456	-6.58982
 215	24	4	0.0300136	21.9869	14.4294	-5.6145
 216	24	2	0.272304	24.9997	12.7817	-5.33835
 217	25	1	-0.443872	-3.31743	13.628	19.6442
 218	25	3	-0.00226649	-3.47501	14.9447	19.1918
 219	25	3	-0.0583719	-4.38922	14.941	17.8553
 220	25	5	0.0710826	-3.8875	15.6083	19.9499
 221	25	5	0.0710826	-2.51794	15.4068	18.9089
 222	25	4	0.0300136	-5.24121	14.2145	17.8076
 223	25	4	0.0300136	-4.75423	15.9885	17.7569
 224	25	4	0.0300136	-3.85712	14.766	16.9166
 225	25	2	0.272304	-2.87185	13.7221	20.5018
 226	26	1	-0.443872	17.6399	-18.7563	9.93522
 227	26	3	-0.00226649	16.8707	-17.9551	10.8376
 228	26	3	-0.0583719	15.3614	-18.1512	10.5122
 229	26	5	0.0710826	17.2563	-18.2923	11.7802
 230	26	5	0.0710826	17.0052	-16.8912	10.7306
 231	26	4	0.0300136	14.8058	-17.2667	10.8087
 232	26	4	0.0300136	15.2398	-18.3196	9.43995
 233	26	4	0.0300136	15.0334	-19.0756	10.9837
 234	26	2	0.272304	18.4549	-18.2679	9.72793
 235	27	1	-0.443872	12.2523	23.6937	-16.9561
 236	27	3	-0.00226649	12.4522	23.0597	-15.6658
 237	27	3	-0.0583719	13.9297	22.6321	-15.5951
 238	27	5	0.0710826	12.0893	23.7349	-14.8603
 239	27	5	0.0710826	11.8338	22.1763	-15.7086
 240	27	4	0.0300136	14.1243	22.1936	-14.6061
 241	27	4	0.0300136	14.1158	21.8607	-16.3257
 242	27	4	0.0300136	14.5591	23.4953	-15.7762
 243	27	2	0.272304	12.3248	24.6548	-16.8052
 244	28	1	-0.443872	-14.7294	-10.9339	-16.1722
 245	28	3	-0.00226649	-14.6788	-9.99808	-17.2488
 246	28	3	-0.0583719	-13.5711	-10.227	-18.2757
 247	28	5	0.0710826	-15.6184	-10.1128	-17.7896
 248	28	5	0.0710826	-14.6508	-9.00348	-16.7919
 249	28	4	0.0300136	-12.6242	-10.1024	-17.7118
 250	28	4	0.0300136	-13.6754	-11.2037	-18.7757
 251	28	4	0.0300136	-13.459	-9.47341	-19.0731
 252	28	2	0.272304	-15.6459	-11.2891	-16.1825
 253	29	1	-0.443872	14.808	10.6007	7.24465
 254	29	3	-0.00226649	15.6087	9.74501	8.06883
 255	29	3	-0.0583719	16.308	8.64308	7.2646
 256	29	5	0.0710826	16.3456	10.3466	8.61135
 257	29	5	0.0710826	14.9898	9.30526	8.83051
 258	29	4	0.0300136	15.9866	7.65278	7.62275
 259	29	4	0.0300136	16.1108	8.72345	6.20109
 260	29	4	0.0300136	17.4114	8.67086	7.38505
 261	29	2	0.272304	14.4772	11.3602	7.76045
 262	30	1	-0.443872	-3.56116	9.49725	-14.6311
 263	30	3	-0.00226649	-3.58377	8.11125	-14.9319
 264	30	3	-0.0583719	-2.48524	7.86415	-15.9802
 265	30	5	0.0710826	-3.29369	7.51092	-14.0441
 266	30	5	0.0710826	-4.57807	7.80058	-15.2662
 267	30	4	0.0300136	-2.57876	8.53997	-16.852
 268	30	4	0.0300136	-1.45369	8.03045	-15.61
 269	30	4	0.0300136	-2.55964	6.79731	-16.259
 270	30	2	0.272304	-4.04876	9.61548	-13.8049
 271	31	1	-0.443872	9.42915	-2.41129	-9.39666
 272	31	3	-0.00226649	8.70058	-1.61389	-8.44323
 273	31	3	-0.0583719	9.62345	-0.455562	-7.96083
 274	31	5	0.0710826	7.80413	-1.13709	-8.87425
 275	31	5	0.0710826	8.37484	-2.23461	-7.61929
 276	31	4	0.0300136	9.39836	0.389208	-8.61117
 277	31	4	0.0300136	9.49301	-0.215111	-6.88515
 278	31	4	0.0300136	10.6734	-0.801153	-8.06182
 279	31	2	0.272304	9.83312	-1.81917	-10.068
 280	32	1	-0.443872	20.6055	-20.1613	17.3292
 281	32	3	-0.00226649	21.8592	-19.8081	16.771
 282	32	3	-0.0583719	21.9019	-18.2883	16.7543
 283	32	5	0.0710826	22.6501	-20.1148	17.45
 284	32	5	0.0710826	22.043	-20.224	15.7981
 285	32	4	0.0300136	22.5078	-17.8779	17.5819
 286	32	4	0.0300136	22.3305	-17.8572	15.8544
 287	32	4	0.0300136	20.8718	-17.9294	16.8936
 288	32	2	0.272304	20.4179	-19.6134	18.1242
 289	33	1	-0.443872	2.47757	-9.94819	-1.55242
 290	33	3	-0.00226649	2.79105	-8.62325	-1.31736
 291	33	3	-0.0583719	1.47241	-7.85979	-1.38173
 292	33	5	0.0710826	3.30787	-8.48928	-0.376541
 293	33	5	0.0710826	3.50413	-8.28189	-2.11867
 294	33	4	0.0300136	1.4396	-7.08946	-0.636436
 295	33	4	0.0300136	1.15047	-7.51482	-2.35399
 296	33	4	0.0300136	0.670159	-8.49773	-0.997713
 297	33	2	0.272304	1.72689	-9.94569	-2.17612
 298	34	1	-0.443872	21.0116	-23.1887	16.0362
 299	34	3	-0.00226649	19.634	-23.6604	16.4055
 300	34	3	-0.0583719	19.8461	-25.044	17.0565
 301	34	5	0.0710826	19.0515	-22.9748	17.0989
 302	34	5	0.0710826	19.0882	-23.6925	15.4383
 303	34	4	0.0300136	19.3131	-25.0315	18.0283
 304	34	4	0.0300136	19.2879	-25.8164	16.5604
 305	34	4	0.0300136	20.8435	-25.3532	17.0839
 306	34	2	0.272304	21.0102	-22.2012	15.9899
 307	35	1	-0.443872	10.0545	15.552	-1.92858
 308	35	3	-0.00226649	8.99226	16.0214	-1.0895
 309	35	3	-0.0583719	9.4105	16.1522	0.411853
 310	35	5	0.0710826	8.67572	17.0075	-1.44091
 311	35	5	0.0710826	8.10438	15.3729	-1.25621
 312	35	4	0.0300136	10.4473	15.8024	0.544113
 313	35	4	0.0300136	9.40284	17.2074	0.753092
 314	35	4	0.0300136	8.71134	15.5348	0.96574
 315	35	2	0.272304	10.8841	15.8572	-1.53491
 316	36	1	-0.443872	-10.7251	11.4271	-21.3507
 317	36	3	-0.00226649	-10.1252	12.642	-21.1047
 318	36	3	-0.0583719	-11.1665	13.7783	-21.0351
 319	36	5	0.0710826	-9.63525	12.5712	-20.1081
 320	36	5	0.0710826	-9.38651	12.8229	-21.8679
 321	36	4	0.0300136	-11.0967	14.4704	-21.8898
 322	36	4	0.0300136	-12.1727	13.3492	-21.0094
 323	36	4	0.0300136	-11.0796	14.332	-20.0808
 324	36	2	0.272304	-11.1369	11.5208	-22.2321
 325	37	1	-0.443872	8.60495	8.61739	13.9985
 326	37	3	-0.00226649	7.53022	7.94413	13.2984
 327	37	3	-0.0583719	6.33953	7.44977	14.1473
 328	37	5	0.0710826	7.06438	8.68262	12.5958
 329	37	5	0.0710826	7.96831	7.06166	12.7699
 330	37	4	0.0300136	5.76723	6.73079	13.5652
 331	37	4	0.0300136	6.67113	6.95685	15.0458
 332	37	4	0.0300136	5.67488	8.28241	14.3719
 333	37	2	0.272304	8.97888	9.33232	13.4629
 334	38	1	-0.443872	-10.9034	-21.6615	-2.55179
 335	38	3	-0.00226649	-10.6013	-22.1245	-3.90134
 336	38	3	-0.0583719	-11.7811	-22.891	-4.54749
 337	38	5	0.0710826	-10.2	-21.3113	-4.53667
 338	38	5	0.0710826	-9.79854	-22.8433	-3.75286
 339	38	4	0.0300136	-11.5221	-23.3155	-5.51806
 340	38	4	0.0300136	-12.2329	-23.751	-4.01044
 341	38	4	0.0300136	-12.6328	-22.2187	-4.70784
 342	38	2	0.272304	-11.868	-21.5422	-2.4918
 343	39	1	-0.443872	13.5394	22.3446	14.9554
 344	39	3	-0.00226649	13.5885	20.9848	15.4128
 345	39	3	-0.0583719	12.259	20.4117	16.0148
 346	39	5	0.0710826	13.8631	20.337	14.5804
 347	39	5	0.0710826	14.3548	20.811	16.1525
 348	39	4	0.0300136	11.401	20.4945	15.3036
 349	39	4	0.0300136	12.3724	19.3334	16.2188
 350	39	4	0.0300136	11.993	20.9394	16.9441
 351	39	2	0.272304	14.0583	22.876	15.5683
 352	40	1	-0.443872	17.7983	13.4245	13.1351
 353	40	3	-0.00226649	17.1428	13.1266	11.8785
 354	40	3	-0.0583719	17.1498	11.6242	11.4191
 355	40	5	0.0710826	16.0847	13.4376	11.854
 356	40	5	0.0710826	17.7568	13.6021	11.0947
 357	40	4	0.0300136	17.0836	11.5689	10.3278
 358	40	4	0.0300136	18.1199	11.1869	11.5888
 359	40	4	0.0300136	16.415	11.0136	11.9112
 360	40	2	0.272304	18.5908	13.9745	12.9846
 361	41	1	-0.443872	4.80064	24.9556	20.7413
 362	41	3	-0.00226649	4.908	23.5629	20.9604
 363	41	3	-0.0583719	5.70151	22.9872	19.8211
 364	41	5	0.0710826	5.40773	23.3744	21.929
 365	41	5	0.0710826	3.93105	23.0848	20.9776
 366	41	4	0.0300136	6.75756	23.3009	19.8648
 367	41	4	0.0300136	5.51956	21.9179	19.8235
 368	41	4	0.0300136	5.29429	23.4667	18.9282
 369	41	2	0.272304	5.64101	25.3745	21.0056
 370	42	1	-0.443872	6.4944	-18.7266	6.76494
 371	42	3	-0.00226649	6.47843	-17.2861	6.57577
 372	42	3	-0.0583719	6.30882	-16.5208	7.91179
 373	42	5	0.0710826	7.46039	-16.978	6.13288
 374	42	5	0.0710826	5.59015	-17.0662	5.92054
 375	42	4	0.0300136	7.26241	-16.0854	8.26525
 376	42	4	0.0300136	5.60518	-15.7081	7.73946
 377	42	4	0.0300136	5.85656	-17.0842	8.72882
 378	42	2	0.272304	7.39914	-18.9931	7.00889
 379	43	1	-0.443872	25.0644	-15.3985	-17.1446
 380	43	3	-0.00226649	25.5144	-15.4527	-18.5774
 381	43	3	-0.0583719	25.294	-14.0686	-19.3403
 382	43	5	0.0710826	-25.4748	-15.7434	-18.646
 383	43	5	0.0710826	24.9814	-16.2127	-19.1127
 384	43	4	0.0300136	24.4348	-14.1571	-19.98
 385	43	4	0.0300136	-25.8971	-13.8041	-20.0241
 386	43	4	0.0300136	25.1784	-13.2353	-18.6016
 387	43	2	0.272304	24.9535	-14.4518	-16.899
 388	44	1	-0.443872	-13.6979	6.09099	16.1916
 389	44	3	-0.00226649	-12.6967	6.85712	16.8244
 390	44	3	-0.0583719	-11.9043	7.54315	15.7576
 391	44	5	0.0710826	-13.1376	7.60229	17.5046
 392	44	5	0.0710826	-12.024	6.10836	17.3508
 393	44	4	0.0300136	-12.4041	7.45672	14.7802
 394	44	4	0.0300136	-11.6523	8.60364	15.9505
 395	44	4	0.0300136	-10.9142	7.12729	15.6964
 396	44	2	0.272304	-13.165	5.36744	15.8086
 397	45	1	-0.443872	0.638571	-0.953562	9.20665
 398	45	3	-0.00226649	1.09922	-2.2646	8.7772
 399	45	3	-0.0583719	1.73895	-2.93582	9.97828
 400	45	5	0.0710826	0.275698	-2.9095	8.48075
 401	45	5	0.0710826	1.77646	-2.12096	7.92633
 402	45	4	0.0300136	2.28161	-3.84593	9.63361
 403	45	4	0.0300136	2.49311	-2.28602	10.475
 404	45	4	0.0300136	0.972561	-3.21734	10.7134
 405	45	2	0.272304	0.270833	-0.450283	8.45358
 406	46	1	-0.443872	-13.6788	20.8046	-6.78238
 407	46	3	-0.00226649	-13.6023	21.4186	-8.11163
 408	46	3	-0.0583719	-14.3531	20.6431	-9.27702
 409	46	5	0.0710826	-13.9214	22.4484	-8.11594
 410	46	5	0.0710826	-12.5155	21.3789	-8.4468
 411	46	4	0.0300136	-14.3599	21.2078	-10.2039
 412	46	4	0.0300136	-13.8534	19.7223	-9.63928
 413	46	4	0.0300136	-15.3907	20.3553	-8.94935
 414	46	2	0.272304	-13.0496	20.0507	-6.78865
 415	47	1	-0.443872	-23.4458	9.55384	-21.4618
 416	47	3	-0.00226649	-23.1257	10.9246	-21.3061
 417	47	3	-0.0583719	-21.5796	11.0399	-21.3098
 418	47	5	0.0710826	-23.5372	11.5278	-22.0924
 419	47	5	0.0710826	-23.5278	11.3437	-20.3854
 420	47	4	0.0300136	-21.2246	10.3571	-22.0956
 421	47	4	0.0300136	-21.2858	12.0635	-21.5721
 422	47	4	0.0300136	-21.1166	10.7551	-20.3739
 423	47	2	0.272304	-22.9252	9.07432	-22.1313
 424	48	1	-0.443872	-1.60585	16.9261	16.3392
 425	48	3	-0.00226649	-0.872163	17.3862	15.1991
 426	48	3	-0.0583719	0.191266	18.4951	15.6193
 427	48	5	0.0710826	-0.305709	16.4782	14.7887
 428	48	5	0.0710826	-1.58541	17.7811	14.4669
 429	48	4	0.0300136	0.313456	19.2422	14.8556
 430	48	4	0.0300136	-0.0346739	19.0846	16.5049
 431	48	4	0.0300136	1.18572	18.0138	15.759
 432	48	2	0.272304	-2.53731	17.1225	16.0945
 433	49	1	-0.443872	23.0844	-5.7639	15.6787
 434	49	3	-0.00226649	24.3619	-6.27108	16.1468
 435	49	3	-0.0583719	24.7225	-5.92404	17.6096
 436	49	5	0.0710826	24.3216	-7.37747	16.09
 437	49	5	0.0710826	25.2527	-5.92862	15.5873
 438	49	4	0.0300136	25.7229	-5.51416	17.7001
 439	49	4	0.0300136	24.0152	-5.20033	18.041
 440	49	4	0.0300136	24.7496	-6.81493	18.2137
 441	49	2	0.272304	23.2993	-5.30498	14.8441
 442	50	1	-0.443872	9.13159	12.4964	16.733
 443	50	3	-0.00226649	7.95298	12.3264	17.468
 444	50	3	-0.0583719	7.85547	10.8448	17.6552
 445	50	5	0.0710826	8.03202	12.878	18.4187
 446	50	5	0.0710826	7.07408	12.5954	16.9032
 447	50	4	0.0300136	7.36982	10.3566	16.794
 448	50	4	0.0300136	8.84914	10.3182	17.6132
 449	50	4	0.0300136	7.39284	10.6108	18.6233
 450	50	2	0.272304	9.32351	11.6424	16.3335
 451	51	1	-0.443872	24.4331	4.72846	23.8449
 452	51	3	-0.00226649	23.0447	4.50814	23.5217
 453	51	3	-0.0583719	22.9534	4.00695	22.051
 454	51	5	0.0710826	22.7127	3.71943	24.153
 455	51	5	0.0710826	22.4205	5.42991	23.6434
 456	51	4	0.0300136	22.3852	4.67966	21.4253
 457	51	4	0.0300136	23.9396	3.95964	21.6082
 458	51	4	0.0300136	22.5769	2.97754	21.9154
 459	51	2	0.272304	24.9635	3.9288	23.653
 460	52	1	-0.443872	18.8206	0.667909	14.8464
 461	52	3	-0.00226649	17.7272	1.51958	14.6004
 462	52	3	-0.0583719	18.1413	2.57503	13.5734
 463	52	5	0.0710826	16.8321	0.986973	14.2232
 464	52	5	0.0710826	17.3912	2.00678	15.5293
 465	52	4	0.0300136	17.7652	3.56539	13.8747
 466	52	4	0.0300136	19.2326	2.58099	13.4605
 467	52	4	0.0300136	17.7667	2.35845	12.5822
 468	52	2	0.272304	19.6434	1.16484	14.6327
 469	53	1	-0.443872	-16.6551	19.7314	9.50335
 470	53	3	-0.00226649	-17.115	19.9446	8.18355
 471	53	3	-0.0583719	-16.3879	21.143	7.59544
 472	53	5	0.0710826	-16.9112	19.0636	7.54213
 473	53	5	0.0710826	-18.181	20.2067	8.16402
 474	53	4	0.0300136	-15.3091	21.051	7.78416
 475	53	4	0.0300136	-16.5686	21.1974	6.51629
 476	53	4	0.0300136	-16.7374	22.0461	8.10632
 477	53	2	0.272304	-16.3559	18.8013	9.57146
 478	54	1	-0.443872	-23.613	-16.3924	-4.7978
 479	54	3	-0.00226649	-24.0365	-17.1813	-3.69408
 480	54	3	-0.0583719	-25.4971	-16.8102	-3.27271
 481	54	5	0.0710826	-24.0469	-18.2533	-3.96562
 482	54	5	0.0710826	-23.3869	-17.1143	-2.85354
 483	54	4	0.0300136	-25.5454	-16.4133	-2.25139
 484	54	4	0.0300136	-25.9106	-16.1135	-3.99453
 485	54	4	0.0300136	25.9106	-17.7098	-3.26099
 486	54	2	0.272304	-22.8331	-15.9359	-4.43895
 487	55	1	-0.443872	-5.255	-15.0487	10.413
 488	55	3	-0.00226649	-5.65027	-14.9504	9.03453
 489	55	3	-0.0583719	-7.16968	-15.3022	8.99425
 490	55	5	0.0710826	-5.6304	-13.948	8.67188
 491	55	5	0.0710826	-5.0741	-15.6766	8.43702
 492	55	4	0.0300136	-7.3936	-16.0952	8.24501
 493	55	4	0.0300136	-7.49129	-15.6471	9.99055
 494	55	4	0.0300136	-7.78969	-14.4666	8.65905
 495	55	2	0.272304	-5.82304	-14.3443	10.7755
 496	56	1	-0.443872	25.9895	13.7667	11.1235
 497	56	3	-0.00226649	25.0611	13.6413	9.99338
 498	56	3	-0.0583719	24.1886	14.9011	9.8629
 499	56	5	0.0710826	25.7038	13.5607	9.09354
 500	56	5	0.0710826	24.4969	12.6964	10.0545
 501	56	4	0.0300136	24.0822	15.1917	8.83865
 502	56	4	0.0300136	23.2211	14.8882	10.3685
 503	56	4	0.0300136	24.7714	15.8036	10.2027
 504	56	2	0.272304	-25.8555	12.841	11.37
 505	57	1	-0.443872	6.53641	20.155	-24.3828
 506	57	3	-0.00226649	7.81742	20.1861	-25.0361
 507	57	3	-0.0583719	8.03785	21.6205	-25.5419
 508	57	5	0.0710826	8.57256	19.9323	-24.2229
 509	57	5	0.0710826	7.87962	19.479	-25.9116
 510	57	4	0.0300136	7.73169	21.625	25.4576
 511	57	4	0.0300136	7.61353	22.4634	-24.9727
 512	57	4	0.0300136	9.09721	21.8232	-25.5793
 513	57	2	0.272304	6.16131	21.0498	-24.4902
 514	58	1	-0.443872	24.0377	1.34671	-17.3158
 515	58	3	-0.00226649	24.0925	2.74666	-16.9635
 516	58	3	-0.0583719	22.7416	3.35098	-16.3269
 517	58	5	0.0710826	24.8603	2.96086	-16.1809
 518	58	5	0.0710826	24.4047	3.26627	-17.8941
 519	58	4	0.0300136	21.8491	2.71656	-16.5081
 520	58	4	0.0300136	22.7781	3.51373	-15.2345
 521	58	4	0.0300136	22.5584	4.32442	-16.8297
 522	58	2	0.272304	24.5296	0.871983	-16.6432
 523	59	1	-0.443872	1.82176	-15.982	-6.95789
 524	59	3	-0.00226649	0.637038	-15.3312	-6.44501
 525	59	3	-0.0583719	-0.600937	-15.6598	-7.30785
 526	59	5	0.0710826	0.443491	-15.6445	-5.41567
 527	59	5	0.0710826	0.787864	-14.2375	-6.41486
 528	59	4	0.0300136	-1.36964	-16.2449	-6.76149
 529	59	4	0.0300136	-1.0469	-14.7056	-7.61734
 530	59	4	0.0300136	-0.301183	-16.2262	-8.21043
 531	59	2	0.272304	2.13891	-16.6245	-6.29344
 532	60	1	-0.443872	25.1728	5.12531	2.40423
 533	60	3	-0.00226649	-25.9906	4.83985	1.37434
 534	60	3	-0.0583719	-24.5723	4.85376	1.96976
 535	60	5	0.0710826	25.7713	3.88041	0.868279
 536	60	5	0.0710826	25.9881	5.64214	0.636051
 537	60	4	0.0300136	-23.9265	4.5517	1.14509
 538	60	4	0.0300136	-24.1686	5.77025	2.39068
 539	60	4	0.0300136	-24.4868	4.06851	2.70972
 540	60	2	0.272304	25.3478	5.95749	2.8465
 541	61	1	-0.443872	-23.8083	8.62708	18.849
 542	61	3	-0.00226649	-25.1088	8.39402	18.2034
 543	61	3	-0.0583719	-25.2044	8.8781	16.7319
 544	61	5	0.0710826	-25.3813	7.32506	18.3346
 545	61	5	0.0710826	-25.9459	8.92446	18.7607
 546	61	4	0.0300136	-25.6092	9.89337	16.6988
 547	61	4	0.0300136	-24.212	8.77576	16.2471
 548	61	4	0.0300136	-25.9023	8.21471	16.2107
 549	61	2	0.272304	-23.6617	7.90897	19.4658
 550	62	1	-0.443872	-17.118	-2.02493	-6.47086
 551	62	3	-0.00226649	-15.9592	-1.35174	-6.95773
 552	62	3	-0.0583719	-16.1868	0.0930962	-6.55675
 553	62	5	0.0710826	-15.0428	-1.69063	-6.47577
 554	62	5	0.0710826	-15.8773	-1.4666	-8.03051
 555	62	4	0.0300136	-15.2648	0.692275	-6.63086
 556	62	4	0.0300136	-16.993	0.585178	-7.08579
 557	62	4	0.0300136	-16.4998	0.170565	-5.50141
 558	62	2	0.272304	-17.8414	-1.37817	-6.50382
 559	63	1	-0.443872	-0.0183285	-9.5437	7.14988
 560	63	3	-0.00226649	0.301455	-10.5301	8.20222
 561	63	3	-0.0583719	0.530132	-11.9454	7.54705
 562	63	5	0.0710826	1.19116	-10.3041	8.81673
 563	63	5	0.0710826	-0.56895	-10.6254	8.83679
 564	63	4	0.0300136	-0.0883635	-12.0866	6.64504
 565	63	4	0.0300136	1.57955	-11.95	7.18258
 566	63	4	0.0300136	0.301374	-12.7985	8.1985
 567	63	2	0.272304	-0.970166	-9.646	6.95333
 568	64	1	-0.443872	-5.50944	5.74903	-0.489863
 569	64	3	-0.00226649	-6.21192	5.21628	-1.57623
 570	64	3	-0.0583719	-5.25281	4.81483	-2.70101
 571	64	5	0.0710826	-6.63946	4.27874	-1.21732
 572	64	5	0.0710826	-6.90601	5.94093	-1.9807
 573	64	4	0.0300136	-4.377	5.50951	-2.79482
 574	64	4	0.0300136	-4.7714	3.81363	-2.48575
 575	64	4	0.0300136	-5.85183	4.68836	-3.60029
 576	64	2	0.272304	-4.58439	5.87084	-0.780069
 577	65	1	-0.443872	0.826873	-2.1258	-0.056909
 578	65	3	-0.00226649	1.13436	-1.82504	1.3072
 579	65	3	-0.0583719	-0.132226	-1.32821	2.04874
 580	65	5	0.0710826	1.50317	-2.72562	1.81697
 581	65	5	0.0710826	1.91591	-1.06811	1.37163
 582	65	4	0.0300136	-0.373109	-0.303228	1.71734
 583	65	4	0.0300136	-0.946101	-2.02344	1.83694
 584	65	4	0.0300136	0.0863199	-1.30239	3.11576
 585	65	2	0.272304	1.67044	-2.22937	-0.539507
 586	66	1	-0.443872	-5.39953	25.3761	8.87652
 587	66	3	-0.00226649	-5.62018	-25.6014	9.79938
 588	66	3	-0.0583719	-6.69311	25.9829	10.7651
 589	66	5	0.0710826	-4.72922	-25.3656	10.3722
 590	66	5	0.0710826	-5.98812	-24.7534	9.32739
 591	66	4	0.0300136	-6.3061	25.5509	11.6968
 592	66	4	0.0300136	-7.30274	-25.1705	11.0298
 593	66	4	0.0300136	-7.33718	25.2447	10.224
 594	66	2	0.272304	-5.47257	24.5288	9.34719
 595	67	1	-0.443872	0.851693	22.2343	19.9521
 596	67	3	-0.00226649	0.24269	23.2473	20.7872
 597	67	3	-0.0583719	-0.0926995	24.6151	20.0285
 598	67	5	0.0710826	-0.705289	22.8923	21.0866
 599	67	5	0.0710826	0.89305	23.4566	21.6285
 600	67	4	0.0300136	0.289468	25.5434	20.464
 601	67	4	0.0300136	0.310254	24.6131	19.0117
 602	67	4	0.0300136	-1.16461	24.6658	20.0746
 603	67	2	0.272304	1.58238	22.6905	19.5071
 604	68	1	-0.443872	-16.9757	-9.04077	-13.3655
 605	68	3	-0.00226649	-16.3244	-8.0627	-12.5623
 606	68	3	-0.0583719	-16.844	-8.20682	-11.0503
 607	68	5	0.0710826	-15.2515	-8.25764	-12.6243
 608	68	5	0.0710826	-16.5598	-7.06001	-12.9293
 609	68	4	0.0300136	-17.5312	-9.07434	-10.8876
 610	68	4	0.0300136	-15.9789	-8.24478	-10.3299
 611	68	4	0.0300136	-17.4364	-7.28771	-10.8899
 612	68	2	0.272304	-16.5991	-8.91351	-14.2495
 613	69	1	-0.443872	-12.7417	12.7334	-8.52036
 614	69	3	-0.00226649	-12.458	13.9941	-7.92268
 615	69	3	-0.0583719	-13.6	14.7236	-7.18545
 616	69	5	0.0710826	-11.7132	13.8372	-7.15851
 617	69	5	0.0710826	-12.0199	14.6743	-8.65644
 618	69	4	0.0300136	-13.1501	15.5017	-6.53481
 619	69	4	0.0300136	-14.1849	15.232	-7.9518
 620	69	4	0.0300136	-14.2716	14.0843	-6.57882
 621	69	2	0.272304	-12.1585	12.0789	-8.09496
 622	70	1	-0.443872	5.16869	4.8803	15.3959
 623	70	3	-0.00226649	4.18056	4.19809	16.0949
 624	70	3	-0.0583719	4.29255	4.49806	17.5839
 625	70	5	0.0710826	3.16856	4.51663	15.782
 626	70	5	0.0710826	4.28646	3.11745	15.9061
 627	70	4	0.0300136	3.89319	5.49849	17.7643
 628	70	4	0.0300136	3.67399	3.75033	18.1484
 629	70	4	0.0300136	5.35508	4.51414	17.9488
 630	70	2	0.272304	6.01938	4.69412	15.8681
 631	71	1	-0.443872	22.6542	8.4918	1.81906
 632	71	3	-0.00226649	23.1489	8.03101	0.584726