pySIMM System Object

162 atoms
171 bonds
300 angles
471 dihedrals
60 impropers

3 atom types
5 bond types
2 angle types
3 dihedral types
1 improper types

-9.023921 9.023921 xlo xhi
-9.023921 9.023921 ylo yhi
-9.023921 9.023921 zlo zhi

Masses

   1	1.008	# H_
   2	12.011	# C_R
   3	12.011	# C_3

Pair Coeffs

   1	0.0152	2.84642140446	# H_
   2	0.0951	3.47299047293	# C_R
   3	0.0951	3.47299047293	# C_3

Bond Coeffs

   1	350.0	1.09	# C_3,H_
   2	350.0	1.53	# C_3,C_3
   3	525.0	1.39	# C_R,C_R
   4	350.0	1.46	# C_R,C_3
   5	350.0	1.02	# C_R,H_

Angle Coeffs

   1	50.0	109.471	# X,C_3,X
   2	50.0	120.0	# X,C_R,X

Dihedral Coeffs

   1	3.125000	-1	2	# X,C_R,C_R,X
   2	0.083333	-1	6	# C_R,C_R,C_3,X
   3	0.111111	1	3	# X,C_3,C_3,X

Improper Coeffs

   1	40.0	0.0	# C_R,X,X,X

Atoms

   1	1	1	0.0394837882083	-4.13770259674	4.66956826007	0.230133398489
   2	1	3	-0.0447518808513	-3.99703668334	4.56097046085	-0.852657771966
   3	1	2	-0.0594993777887	-2.60992133295	4.09533625951	-1.14144917633
   4	1	2	-0.0775234865994	-1.95203799108	3.26057935276	-0.238000375829
   5	1	2	-0.0775234865994	-1.97034331917	4.49482843045	-2.31486103056
   6	1	3	-0.0728971374764	-5.05563596313	3.61161222726	-1.407768643
   7	1	2	-0.0830957774989	-0.654597074083	2.82533229532	-0.508185397435
   8	1	2	-0.0830957774989	-0.672901651851	4.05953029136	-2.58496008647
   9	1	2	-0.0836036651708	-0.015037998301	3.22473998133	-1.68164728814
  10	1	1	0.0394837882083	-4.15074405467	5.5629156914	-1.27251881919
  11	1	1	0.0845609368538	-2.44001272624	2.94088531212	0.678942543997
  12	1	1	0.0845609368538	-2.47254274632	5.1435404041	-3.02765584719
  13	1	1	0.0276340176099	-6.05764782244	3.98632395488	-1.17636552072
  14	1	1	0.0276340176099	-4.95736382523	2.6111592594	-0.97304327452
  15	1	1	0.0836768132161	-0.14258400277	2.17494941054	0.194922807593
  16	1	1	0.0836768132161	-0.175002974511	4.37004441759	-3.49895266003
  17	1	1	0.0836454600975	0.995043441942	2.88568266882	-1.8921672941
  18	1	3	-0.0447518808513	-4.936718592072454	3.47801675674558	-2.930602807418532
  19	1	2	-0.0594993777887	-3.5496032416778176	3.0123825553974415	-3.2193942117823826
  20	1	2	-0.0775234865994	-2.891719899810273	2.1776256486478593	-2.31594541128118
  21	1	2	-0.0775234865994	-2.910025227905186	3.4118747263370963	-4.392806066016256
  22	1	3	-0.0728971374764	-5.995317871863399	2.528658523155522	-3.4857136784531915
  23	1	2	-0.0830957774989	-1.5942789828139894	1.7423785912154268	-2.586130432887213
  24	1	2	-0.0830957774989	-1.6125835605822862	2.9765765872497267	-4.662905121922507
  25	1	2	-0.0836036651708	-0.954719907032019	2.141786277222702	-3.759592323594886
  26	1	1	0.0394837882083	-5.090425963404707	4.479961987295634	-3.3504638546426433
  27	1	1	0.0845609368538	-3.3796946349748906	1.8579316080066728	-1.3990024914549064
  28	1	1	0.0845609368538	-3.4122246550548136	4.06058669999195	-5.105600882641214
  29	1	1	0.0276340176099	-6.997329731168261	2.903370250769469	-3.254310556173075
  30	1	1	0.0276340176099	-5.897045733963104	1.5282055552896496	-3.0509883099722703
  31	1	1	0.0836768132161	-1.082265911501124	1.0919957064265589	-1.8830222278586584
  32	1	1	0.0836768132161	-1.114684883241888	3.2870907134811578	-5.576897695477355
  33	1	1	0.0836454600975	0.05536153321058776	1.8027289647116267	-3.97011232955676
  34	1	3	-0.0447518808513	-5.876400500803481	2.3950630526365204	-5.0085478428706445
  35	1	2	-0.0594993777887	-4.489285150408844	1.9294288512883817	-5.297339247234495
  36	1	2	-0.0775234865994	-3.8314018085413	1.0946719445387996	-4.393890446733293
  37	1	2	-0.0775234865994	-3.849707136636213	2.3289210222280365	-6.470751101468369
  38	1	3	-0.0728971374764	-6.934999780594426	1.4457048190464623	-5.563658713905305
  39	1	2	-0.0830957774989	-2.5339608915450165	0.6594248871063669	-4.664075468339326
  40	1	2	-0.0830957774989	-2.5522654693133133	1.893622883140667	-6.74085015737462
  41	1	2	-0.0836036651708	-1.8944018157630462	1.058832573113642	-5.837537359046999
  42	1	1	0.0394837882083	-6.0301078721357335	3.397008283186574	-5.428408890094756
  43	1	1	0.0845609368538	-4.319376543705918	0.7749779038976129	-3.4769475269070194
  44	1	1	0.0845609368538	-4.351906563785841	2.9776329958828907	-7.183545918093327
  45	1	1	0.0276340176099	-7.937011639899287	1.8204165466604092	-5.332255591625188
  46	1	1	0.0276340176099	-6.836727642694131	0.44525185118058974	-5.128933345424383
  47	1	1	0.0836768132161	-2.021947820232151	0.009042002317498993	-3.9609672633107715
  48	1	1	0.0836768132161	-2.054366791972915	2.204137009372098	-7.6548427309294675
  49	1	1	0.0836454600975	-0.8843203755204393	0.7197752606025668	-6.048057365008873
  50	1	3	-0.0447518808513	-6.816082409534507	1.3121093485274606	-7.086492878322757
  51	1	2	-0.0594993777887	-5.428967059139871	0.8464751471793218	-7.375284282686608
  52	1	2	-0.0775234865994	-4.771083717272327	0.011718240429739707	-6.471835482185406
  53	1	2	-0.0775234865994	-4.78938904536724	1.2459673181189768	-8.548696136920482
  54	1	3	-0.0728971374764	-7.8746816893254525	0.3627511149374024	-7.641603749357418
  55	1	2	-0.0830957774989	-3.4736428002760436	-0.42352881700269296	-6.742020503791439
  56	1	2	-0.0830957774989	-3.4919473780443404	0.8106691790316071	-8.818795192826734
  57	1	2	-0.0836036651708	-2.8340837244940733	-0.024121130995417767	-7.915482394499112
  58	1	1	0.0394837882083	-6.96978978086676	2.3140545790775144	-7.506353925546869
  59	1	1	0.0845609368538	-5.259058452436944	-0.307975800211447	-5.554892562359132
  60	1	1	0.0845609368538	-5.291588472516867	1.8946792917738309	-9.26149095354544
  61	1	1	0.0276340176099	-8.876693548630314	0.7374628425513493	-7.410200627077301
  62	1	1	0.0276340176099	-7.776409551425157	-0.6377018529284701	-7.206878380876496
  63	1	1	0.0836768132161	-2.961629728963178	-1.073911701791561	-6.0389122987628845
  64	1	1	0.0836768132161	-2.9940487007039422	1.1211833052630382	-9.73278776638158
  65	1	1	0.0836454600975	-1.8240022842514665	-0.3631784435064931	-8.126002400460987
  66	1	3	-0.0447518808513	-7.755764318265534	0.22915564441840067	-9.16443791377487
  67	1	2	-0.0594993777887	-6.3686489678708975	-0.23647855692973815	-9.453229318138721
  68	1	2	-0.0775234865994	-5.7107656260033535	-1.0712354636793202	-8.549780517637519
  69	1	2	-0.0775234865994	-5.729070954098266	0.1630136140099168	-10.626641172372596
  70	1	3	-0.0728971374764	-8.81436359805648	-0.7202025891716576	-9.719548784809533
  71	1	2	-0.0830957774989	-4.41332470900707	-1.506482521111753	-8.819965539243553
  72	1	2	-0.0830957774989	-4.431629286775367	-0.27228452507745293	-10.896740228278848
  73	1	2	-0.0836036651708	-3.7737656332251004	-1.1070748351044777	-9.993427429951225
  74	1	1	0.0394837882083	-7.909471689597787	1.2311008749684547	-9.584298960998982
  75	1	1	0.0845609368538	-6.198740361167971	-1.390929504320507	-7.632837597811245
  76	1	1	0.0845609368538	-6.231270381247894	0.8117255876647709	-11.339435988997554
  77	1	1	0.0276340176099	-9.81637545736134	-0.3454908615577107	-9.488145662529414
  78	1	1	0.0276340176099	-8.716091460156184	-1.7206555570375301	-9.28482341632861
  79	1	1	0.0836768132161	-3.901311637694205	-2.156865405900621	-8.116857334214998
  80	1	1	0.0836768132161	-3.9337306094349693	0.03822960115397825	-11.810732801833694
  81	1	1	0.0836454600975	-2.7636841929824936	-1.446132147615553	-10.2039474359131
  82	1	3	-0.0447518808513	-8.69544622699656	-0.8537980596906594	-11.242382949226984
  83	1	2	-0.0594993777887	-7.308330876601924	-1.319432261038798	-11.531174353590835
  84	1	2	-0.0775234865994	-6.65044753473438	-2.15418916778838	-10.627725553089633
  85	1	2	-0.0775234865994	-6.668752862829293	-0.9199400900991432	-12.70458620782471
  86	1	3	-0.0728971374764	-9.754045506787506	-1.8031562932807175	-11.797493820261646
  87	1	2	-0.0830957774989	-5.353006617738097	-2.5894362252208127	-10.897910574695667
  88	1	2	-0.0830957774989	-5.371311195506394	-1.3552382291865128	-12.974685263730962
  89	1	2	-0.0836036651708	-4.713447541956127	-2.1900285392135377	-12.07137246540334
  90	1	1	0.0394837882083	-8.849153598328813	0.1481471708593947	-11.662243996451096
  91	1	1	0.0845609368538	-7.138422269898998	-2.4738832084295668	-9.710782633263358
  92	1	1	0.0845609368538	-7.170952289978921	-0.2712281164442891	-13.417381024449668
  93	1	1	0.0276340176099	-10.756057366092367	-1.4284445656667706	-11.566090697981528
  94	1	1	0.0276340176099	-9.65577336888721	-2.80360926114659	-11.362768451780724
  95	1	1	0.0836768132161	-4.840993546425231	-3.2398191100096807	-10.194802369667112
  96	1	1	0.0836768132161	-4.8734125181659955	-1.0447241029550818	-13.888677837285808
  97	1	1	0.0836454600975	-3.7033661017135207	-2.529085851724613	-12.281892471365214
  98	1	3	-0.0447518808513	-9.635128135727587	-1.9367517637997191	-13.320327984679098
  99	1	2	-0.0594993777887	-8.24801278533295	-2.402385965147858	-13.609119389042949
 100	1	2	-0.0775234865994	-7.590129443465407	-3.23714287189744	-12.705670588541746
 101	1	2	-0.0775234865994	-7.6084347715603196	-2.002893794208203	-14.782531243276823
 102	1	3	-0.0728971374764	-10.693727415518532	-2.8861099973897772	-13.87543885571376
 103	1	2	-0.0830957774989	-6.2926885264691235	-3.6723899293298725	-12.97585561014778
 104	1	2	-0.0830957774989	-6.31099310423742	-2.4381919332955726	-15.052630299183075
 105	1	2	-0.0836036651708	-5.653129450687153	-3.2729822433225975	-14.149317500855453
 106	1	1	0.0394837882083	-9.78883550705984	-0.9348065332496652	-13.74018903190321
 107	1	1	0.0845609368538	-8.078104178630024	-3.5568369125386265	-11.788727668715472
 108	1	1	0.0845609368538	-8.110634198709947	-1.354181820553349	-15.495326059901782
 109	1	1	0.0276340176099	-11.695739274823394	-2.5113982697758304	-13.644035733433642
 110	1	1	0.0276340176099	-10.595455277618237	-3.8865629652556497	-13.440713487232838
 111	1	1	0.0836768132161	-5.780675455156258	-4.322772814118741	-12.272747405119226
 112	1	1	0.0836768132161	-5.813094426897022	-2.1276778070641416	-15.966622872737922
 113	1	1	0.0836454600975	-4.643048010444547	-3.6120395558336726	-14.359837506817328
 114	1	3	-0.0447518808513	-10.574810044458614	-3.019705467908779	-15.398273020131212
 115	1	2	-0.0594993777887	-9.187694694063977	-3.4853396692569176	-15.687064424495063
 116	1	2	-0.0775234865994	-8.529811352196432	-4.3200965760065	-14.78361562399386
 117	1	2	-0.0775234865994	-8.548116680291347	-3.085847498317263	-16.86047627872894
 118	1	3	-0.0728971374764	-11.633409324249559	-3.969063701498837	-15.953383891165874
 119	1	2	-0.0830957774989	-7.23237043520015	-4.755343633438932	-15.053800645599894
 120	1	2	-0.0830957774989	-7.250675012968447	-3.5211456374046324	-17.13057533463519
 121	1	2	-0.0836036651708	-6.59281135941818	-4.355935947431658	-16.227262536307567
 122	1	1	0.0394837882083	-10.728517415790867	-2.017760237358725	-15.818134067355324
 123	1	1	0.0845609368538	-9.017786087361051	-4.639790616647686	-13.866672704167586
 124	1	1	0.0845609368538	-9.050316107440974	-2.4371355246624087	-17.573271095353896
 125	1	1	0.0276340176099	-12.63542118355442	-3.59435197388489	-15.721980768885755
 126	1	1	0.0276340176099	-11.535137186349264	-4.96951666936471	-15.518658522684952
 127	1	1	0.0836768132161	-6.720357363887285	-5.405726518227801	-14.35069244057134
 128	1	1	0.0836768132161	-6.752776335628049	-3.2106315111732013	-18.04456790819004
 129	1	1	0.0836454600975	-5.5827299191755735	-4.694993259942733	-16.437782542269442
 130	1	3	-0.0447518808513	-11.51449195318964	-4.102659172017839	-17.476218055583328
 131	1	2	-0.0594993777887	-10.127376602795003	-4.568293373365978	-17.76500945994718
 132	1	2	-0.0775234865994	-9.46949326092746	-5.40305028011556	-16.861560659445978
 133	1	2	-0.0775234865994	-9.487798589022374	-4.168801202426323	-18.938421314181056
 134	1	3	-0.0728971374764	-12.573091232980586	-5.052017405607898	-18.031328926617988
 135	1	2	-0.0830957774989	-8.172052343931178	-5.838297337547993	-17.13174568105201
 136	1	2	-0.0830957774989	-8.190356921699474	-4.604099341513693	-19.208520370087307
 137	1	2	-0.0836036651708	-7.5324932681492065	-5.438889651540719	-18.30520757175968
 138	1	1	0.0394837882083	-11.668199324521893	-3.100713941467785	-17.89607910280744
 139	1	1	0.0845609368538	-9.957467996092078	-5.722744320756747	-15.944617739619702
 140	1	1	0.0845609368538	-9.989998016172	-3.5200892287714685	-19.651216130806013
 141	1	1	0.0276340176099	-13.575103092285447	-4.67730567799395	-17.79992580433787
 142	1	1	0.0276340176099	-12.47481909508029	-6.05247037347377	-17.59660355813707
 143	1	1	0.0836768132161	-7.660039272618311	-6.488680222336861	-16.428637476023457
 144	1	1	0.0836768132161	-7.692458244359075	-4.293585215282262	-20.122512943642157
 145	1	1	0.0836454600975	-6.5224118279066	-5.777946964051794	-18.515727577721556
 146	1	3	-0.0447518808513	-12.454173861920667	-5.185612876126898	-19.55416309103545
 147	1	2	-0.0594993777887	-11.06705851152603	-5.651247077475037	-19.8429544953993
 148	1	2	-0.0775234865994	-10.409175169658486	-6.486003984224619	-18.9395056948981
 149	1	2	-0.0775234865994	-10.4274804977534	-5.251754906535382	-21.016366349633177
 150	1	3	-0.0728971374764	-13.512773141711612	-6.134971109716957	-20.10927396207011
 151	1	2	-0.0830957774989	-9.111734252662204	-6.921251041657052	-19.20969071650413
 152	1	2	-0.0830957774989	-9.1300388304305	-5.6870530456227515	-21.286465405539428
 153	1	2	-0.0836036651708	-8.472175176880233	-6.521843355649778	-20.3831526072118
 154	1	1	0.0394837882083	-12.60788123325292	-4.183667645576844	-19.974024138259562
 155	1	1	0.0845609368538	-10.897149904823104	-6.805698024865806	-18.022562775071822
 156	1	1	0.0845609368538	-10.929679924903027	-4.603042932880528	-21.729161166258134
 157	1	1	0.0276340176099	-14.514785001016474	-5.760259382103009	-19.877870839789992
 158	1	1	0.0276340176099	-13.414501003811317	-7.135424077582829	-19.67454859358919
 159	1	1	0.0836768132161	-8.599721181349338	-7.57163392644592	-18.506582511475578
 160	1	1	0.0836768132161	-8.632140153090102	-5.3765389193913204	-22.200457979094278
 161	1	1	0.0836454600975	-7.462093736637627	-6.860900668160853	-20.593672613173677
 162	1	1	0.0276340176099	-13.4278321623831	-6.230396445801957	-21.197012650939723

Velocities

   1	0.0	0.0	0.0
   2	0.0	0.0	0.0
   3	0.0	0.0	0.0
   4	0.0	0.0	0.0
   5	0.0	0.0	0.0
   6	0.0	0.0	0.0
   7	0.0	0.0	0.0
   8	0.0	0.0	0.0
   9	0.0	0.0	0.0
  10	0.0	0.0	0.0
  11	0.0	0.0	0.0
  12	0.0	0.0	0.0
  13	0.0	0.0	0.0
  14	0.0	0.0	0.0
  15	0.0	0.0	0.0
  16	0.0	0.0	0.0
  17	0.0	0.0	0.0
  18	0.0	0.0	0.0
  19	0.0	0.0	0.0
  20	0.0	0.0	0.0
  21	0.0	0.0	0.0
  22	0.0	0.0	0.0
  23	0.0	0.0	0.0
  24	0.0	0.0	0.0
  25	0.0	0.0	0.0
  26	0.0	0.0	0.0
  27	0.0	0.0	0.0
  28	0.0	0.0	0.0
  29	0.0	0.0	0.0
  30	0.0	0.0	0.0
  31	0.0	0.0	0.0
  32	0.0	0.0	0.0
  33	0.0	0.0	0.0
  34	0.0	0.0	0.0
  35	0.0	0.0	0.0
  36	0.0	0.0	0.0
  37	0.0	0.0	0.0
  38	0.0	0.0	0.0
  39	0.0	0.0	0.0
  40	0.0	0.0	0.0
  41	0.0	0.0	0.0
  42	0.0	0.0	0.0
  43	0.0	0.0	0.0
  44	0.0	0.0	0.0
  45	0.0	0.0	0.0
  46	0.0	0.0	0.0
  47	0.0	0.0	0.0
  48	0.0	0.0	0.0
  49	0.0	0.0	0.0
  50	0.0	0.0	0.0
  51	0.0	0.0	0.0
  52	0.0	0.0	0.0
  53	0.0	0.0	0.0
  54	0.0	0.0	0.0
  55	0.0	0.0	0.0
  56	0.0	0.0	0.0
  57	0.0	0.0	0.0
  58	0.0	0.0	0.0
  59	0.0	0.0	0.0
  60	0.0	0.0	0.0
  61	0.0	0.0	0.0
  62	0.0	0.0	0.0
  63	0.0	0.0	0.0
  64	0.0	0.0	0.0
  65	0.0	0.0	0.0
  66	0.0	0.0	0.0
  67	0.0	0.0	0.0
  68	0.0	0.0	0.0
  69	0.0	0.0	0.0
  70	0.0	0.0	0.0
  71	0.0	0.0	0.0
  72	0.0	0.0	0.0
  73	0.0	0.0	0.0
  74	0.0	0.0	0.0
  75	0.0	0.0	0.0
  76	0.0	0.0	0.0
  77	0.0	0.0	0.0
  78	0.0	0.0	0.0
  79	0.0	0.0	0.0
  80	0.0	0.0	0.0
  81	0.0	0.0	0.0
  82	0.0	0.0	0.0
  83	0.0	0.0	0.0
  84	0.0	0.0	0.0
  85	0.0	0.0	0.0
  86	0.0	0.0	0.0
  87	0.0	0.0	0.0
  88	0.0	0.0	0.0
  89	0.0	0.0	0.0
  90	0.0	0.0	0.0
  91	0.0	0.0	0.0
  92	0.0	0.0	0.0
  93	0.0	0.0	0.0
  94	0.0	0.0	0.0
  95	0.0	0.0	0.0
  96	0.0	0.0	0.0
  97	0.0	0.0	0.0
  98	0.0	0.0	0.0
  99	0.0	0.0	0.0
 100	0.0	0.0	0.0
 101	0.0	0.0	0.0
 102	0.0	0.0	0.0
 103	0.0	0.0	0.0
 104	0.0	0.0	0.0
 105	0.0	0.0	0.0
 106	0.0	0.0	0.0
 107	0.0	0.0	0.0
 108	0.0	0.0	0.0
 109	0.0	0.0	0.0
 110	0.0	0.0	0.0
 111	0.0	0.0	0.0
 112	0.0	0.0	0.0
 113	0.0	0.0	0.0
 114	0.0	0.0	0.0
 115	0.0	0.0	0.0
 116	0.0	0.0	0.0
 117	0.0	0.0	0.0
 118	0.0	0.0	0.0
 119	0.0	0.0	0.0
 120	0.0	0.0	0.0
 121	0.0	0.0	0.0
 122	0.0	0.0	0.0
 123	0.0	0.0	0.0
 124	0.0	0.0	0.0
 125	0.0	0.0	0.0
 126	0.0	0.0	0.0
 127	0.0	0.0	0.0
 128	0.0	0.0	0.0
 129	0.0	0.0	0.0
 130	0.0	0.0	0.0
 131	0.0	0.0	0.0
 132	0.0	0.0	0.0
 133	0.0	0.0	0.0
 134	0.0	0.0	0.0
 135	0.0	0.0	0.0
 136	0.0	0.0	0.0
 137	0.0	0.0	0.0
 138	0.0	0.0	0.0
 139	0.0	0.0	0.0
 140	0.0	0.0	0.0
 141	0.0	0.0	0.0
 142	0.0	0.0	0.0
 143	0.0	0.0	0.0
 144	0.0	0.0	0.0
 145	0.0	0.0	0.0
 146	0.0	0.0	0.0
 147	0.0	0.0	0.0
 148	0.0	0.0	0.0
 149	0.0	0.0	0.0
 150	0.0	0.0	0.0
 151	0.0	0.0	0.0
 152	0.0	0.0	0.0
 153	0.0	0.0	0.0
 154	0.0	0.0	0.0
 155	0.0	0.0	0.0
 156	0.0	0.0	0.0
 157	0.0	0.0	0.0
 158	0.0	0.0	0.0
 159	0.0	0.0	0.0
 160	0.0	0.0	0.0
 161	0.0	0.0	0.0
 162	0.0	0.0	0.0

Bonds

   1	1	2	1
   2	1	2	10
   3	4	3	2
   4	5	4	11
   5	3	4	3
   6	5	5	12
   7	3	5	3
   8	1	6	13
   9	2	6	2
  10	3	7	4
  11	3	8	5
  12	3	9	7
  13	3	9	8
  14	1	14	6
  15	5	15	7
  16	5	16	8
  17	5	17	9
  18	1	18	26
  19	4	19	18
  20	5	20	27
  21	3	20	19
  22	5	21	28
  23	3	21	19
  24	1	22	29
  25	2	22	18
  26	3	23	20
  27	3	24	21
  28	3	25	23
  29	3	25	24
  30	1	30	22
  31	5	31	23
  32	5	32	24
  33	5	33	25
  34	2	6	18
  35	1	34	42
  36	4	35	34
  37	5	36	43
  38	3	36	35
  39	5	37	44
  40	3	37	35
  41	1	38	45
  42	2	38	34
  43	3	39	36
  44	3	40	37
  45	3	41	39
  46	3	41	40
  47	1	46	38
  48	5	47	39
  49	5	48	40
  50	5	49	41
  51	2	22	34
  52	1	50	58
  53	4	51	50
  54	5	52	59
  55	3	52	51
  56	5	53	60
  57	3	53	51
  58	1	54	61
  59	2	54	50
  60	3	55	52
  61	3	56	53
  62	3	57	55
  63	3	57	56
  64	1	62	54
  65	5	63	55
  66	5	64	56
  67	5	65	57
  68	2	38	50
  69	1	66	74
  70	4	67	66
  71	5	68	75
  72	3	68	67
  73	5	69	76
  74	3	69	67
  75	1	70	77
  76	2	70	66
  77	3	71	68
  78	3	72	69
  79	3	73	71
  80	3	73	72
  81	1	78	70
  82	5	79	71
  83	5	80	72
  84	5	81	73
  85	2	54	66
  86	1	82	90
  87	4	83	82
  88	5	84	91
  89	3	84	83
  90	5	85	92
  91	3	85	83
  92	1	86	93
  93	2	86	82
  94	3	87	84
  95	3	88	85
  96	3	89	87
  97	3	89	88
  98	1	94	86
  99	5	95	87
 100	5	96	88
 101	5	97	89
 102	2	70	82
 103	1	98	106
 104	4	99	98
 105	5	100	107
 106	3	100	99
 107	5	101	108
 108	3	101	99
 109	1	102	109
 110	2	102	98
 111	3	103	100
 112	3	104	101
 113	3	105	103
 114	3	105	104
 115	1	110	102
 116	5	111	103
 117	5	112	104
 118	5	113	105
 119	2	86	98
 120	1	114	122
 121	4	115	114
 122	5	116	123
 123	3	116	115
 124	5	117	124
 125	3	117	115
 126	1	118	125
 127	2	118	114
 128	3	119	116
 129	3	120	117
 130	3	121	119
 131	3	121	120
 132	1	126	118
 133	5	127	119
 134	5	128	120
 135	5	129	121
 136	2	102	114
 137	1	130	138
 138	4	131	130
 139	5	132	139
 140	3	132	131
 141	5	133	140
 142	3	133	131
 143	1	134	141
 144	2	134	130
 145	3	135	132
 146	3	136	133
 147	3	137	135
 148	3	137	136
 149	1	142	134
 150	5	143	135
 151	5	144	136
 152	5	145	137
 153	2	118	130
 154	1	146	154
 155	4	147	146
 156	5	148	155
 157	3	148	147
 158	5	149	156
 159	3	149	147
 160	1	150	157
 161	2	150	146
 162	3	151	148
 163	3	152	149
 164	3	153	151
 165	3	153	152
 166	1	158	150
 167	5	159	151
 168	5	160	152
 169	5	161	153
 170	1	162	150
 171	2	134	146

Angles

   1	1	1	2	10
   2	1	1	2	3
   3	1	1	2	6
   4	1	10	2	3
   5	1	10	2	6
   6	1	3	2	6
   7	2	2	3	4
   8	2	2	3	5
   9	2	4	3	5
  10	2	3	4	11
  11	2	3	4	7
  12	2	11	4	7
  13	2	8	5	3
  14	2	8	5	12
  15	2	3	5	12
  16	1	2	6	13
  17	1	2	6	14
  18	1	13	6	14
  19	2	9	7	4
  20	2	9	7	15
  21	2	4	7	15
  22	2	16	8	9
  23	2	16	8	5
  24	2	9	8	5
  25	2	8	9	17
  26	2	8	9	7
  27	2	17	9	7
  28	1	26	18	19
  29	1	26	18	22
  30	1	19	18	22
  31	2	18	19	20
  32	2	18	19	21
  33	2	20	19	21
  34	2	19	20	27
  35	2	19	20	23
  36	2	27	20	23
  37	2	24	21	19
  38	2	24	21	28
  39	2	19	21	28
  40	1	18	22	29
  41	1	18	22	30
  42	1	29	22	30
  43	2	25	23	20
  44	2	25	23	31
  45	2	20	23	31
  46	2	32	24	25
  47	2	32	24	21
  48	2	25	24	21
  49	2	24	25	33
  50	2	24	25	23
  51	2	33	25	23
  52	1	2	6	18
  53	1	13	6	18
  54	1	14	6	18
  55	1	6	18	26
  56	1	6	18	19
  57	1	6	18	22
  58	1	42	34	35
  59	1	42	34	38
  60	1	35	34	38
  61	2	34	35	36
  62	2	34	35	37
  63	2	36	35	37
  64	2	35	36	43
  65	2	35	36	39
  66	2	43	36	39
  67	2	40	37	35
  68	2	40	37	44
  69	2	35	37	44
  70	1	34	38	45
  71	1	34	38	46
  72	1	45	38	46
  73	2	41	39	36
  74	2	41	39	47
  75	2	36	39	47
  76	2	48	40	41
  77	2	48	40	37
  78	2	41	40	37
  79	2	40	41	49
  80	2	40	41	39
  81	2	49	41	39
  82	1	18	22	34
  83	1	29	22	34
  84	1	30	22	34
  85	1	22	34	42
  86	1	22	34	35
  87	1	22	34	38
  88	1	58	50	51
  89	1	58	50	54
  90	1	51	50	54
  91	2	50	51	52
  92	2	50	51	53
  93	2	52	51	53
  94	2	51	52	59
  95	2	51	52	55
  96	2	59	52	55
  97	2	56	53	51
  98	2	56	53	60
  99	2	51	53	60
 100	1	50	54	61
 101	1	50	54	62
 102	1	61	54	62
 103	2	57	55	52
 104	2	57	55	63
 105	2	52	55	63
 106	2	64	56	57
 107	2	64	56	53
 108	2	57	56	53
 109	2	56	57	65
 110	2	56	57	55
 111	2	65	57	55
 112	1	34	38	50
 113	1	45	38	50
 114	1	46	38	50
 115	1	38	50	58
 116	1	38	50	51
 117	1	38	50	54
 118	1	74	66	67
 119	1	74	66	70
 120	1	67	66	70
 121	2	66	67	68
 122	2	66	67	69
 123	2	68	67	69
 124	2	67	68	75
 125	2	67	68	71
 126	2	75	68	71
 127	2	72	69	67
 128	2	72	69	76
 129	2	67	69	76
 130	1	66	70	77
 131	1	66	70	78
 132	1	77	70	78
 133	2	73	71	68
 134	2	73	71	79
 135	2	68	71	79
 136	2	80	72	73
 137	2	80	72	69
 138	2	73	72	69
 139	2	72	73	81
 140	2	72	73	71
 141	2	81	73	71
 142	1	50	54	66
 143	1	61	54	66
 144	1	62	54	66
 145	1	54	66	74
 146	1	54	66	67
 147	1	54	66	70
 148	1	90	82	83
 149	1	90	82	86
 150	1	83	82	86
 151	2	82	83	84
 152	2	82	83	85
 153	2	84	83	85
 154	2	83	84	91
 155	2	83	84	87
 156	2	91	84	87
 157	2	88	85	83
 158	2	88	85	92
 159	2	83	85	92
 160	1	82	86	93
 161	1	82	86	94
 162	1	93	86	94
 163	2	89	87	84
 164	2	89	87	95
 165	2	84	87	95
 166	2	96	88	89
 167	2	96	88	85
 168	2	89	88	85
 169	2	88	89	97
 170	2	88	89	87
 171	2	97	89	87
 172	1	66	70	82
 173	1	77	70	82
 174	1	78	70	82
 175	1	70	82	90
 176	1	70	82	83
 177	1	70	82	86
 178	1	106	98	99
 179	1	106	98	102
 180	1	99	98	102
 181	2	98	99	100
 182	2	98	99	101
 183	2	100	99	101
 184	2	99	100	107
 185	2	99	100	103
 186	2	107	100	103
 187	2	104	101	99
 188	2	104	101	108
 189	2	99	101	108
 190	1	98	102	109
 191	1	98	102	110
 192	1	109	102	110
 193	2	105	103	100
 194	2	105	103	111
 195	2	100	103	111
 196	2	112	104	105
 197	2	112	104	101
 198	2	105	104	101
 199	2	104	105	113
 200	2	104	105	103
 201	2	113	105	103
 202	1	82	86	98
 203	1	93	86	98
 204	1	94	86	98
 205	1	86	98	106
 206	1	86	98	99
 207	1	86	98	102
 208	1	122	114	115
 209	1	122	114	118
 210	1	115	114	118
 211	2	114	115	116
 212	2	114	115	117
 213	2	116	115	117
 214	2	115	116	123
 215	2	115	116	119
 216	2	123	116	119
 217	2	120	117	115
 218	2	120	117	124
 219	2	115	117	124
 220	1	114	118	125
 221	1	114	118	126
 222	1	125	118	126
 223	2	121	119	116
 224	2	121	119	127
 225	2	116	119	127
 226	2	128	120	121
 227	2	128	120	117
 228	2	121	120	117
 229	2	120	121	129
 230	2	120	121	119
 231	2	129	121	119
 232	1	98	102	114
 233	1	109	102	114
 234	1	110	102	114
 235	1	102	114	122
 236	1	102	114	115
 237	1	102	114	118
 238	1	138	130	131
 239	1	138	130	134
 240	1	131	130	134
 241	2	130	131	132
 242	2	130	131	133
 243	2	132	131	133
 244	2	131	132	139
 245	2	131	132	135
 246	2	139	132	135
 247	2	136	133	131
 248	2	136	133	140
 249	2	131	133	140
 250	1	130	134	141
 251	1	130	134	142
 252	1	141	134	142
 253	2	137	135	132
 254	2	137	135	143
 255	2	132	135	143
 256	2	144	136	137
 257	2	144	136	133
 258	2	137	136	133
 259	2	136	137	145
 260	2	136	137	135
 261	2	145	137	135
 262	1	114	118	130
 263	1	125	118	130
 264	1	126	118	130
 265	1	118	130	138
 266	1	118	130	131
 267	1	118	130	134
 268	1	154	146	147
 269	1	154	146	150
 270	1	147	146	150
 271	2	146	147	148
 272	2	146	147	149
 273	2	148	147	149
 274	2	147	148	155
 275	2	147	148	151
 276	2	155	148	151
 277	2	152	149	147
 278	2	152	149	156
 279	2	147	149	156
 280	1	146	150	162
 281	1	146	150	157
 282	1	146	150	158
 283	1	162	150	157
 284	1	162	150	158
 285	1	157	150	158
 286	2	153	151	148
 287	2	153	151	159
 288	2	148	151	159
 289	2	160	152	153
 290	2	160	152	149
 291	2	153	152	149
 292	2	152	153	161
 293	2	152	153	151
 294	2	161	153	151
 295	1	130	134	146
 296	1	141	134	146
 297	1	142	134	146
 298	1	134	146	154
 299	1	134	146	147
 300	1	134	146	150

Dihedrals

   1	2	4	3	2	1
   2	2	4	3	2	10
   3	2	4	3	2	6
   4	2	5	3	2	1
   5	2	5	3	2	10
   6	2	5	3	2	6
   7	1	11	4	3	2
   8	1	11	4	3	5
   9	1	7	4	3	2
  10	1	7	4	3	5
  11	1	8	5	3	2
  12	1	8	5	3	4
  13	1	12	5	3	2
  14	1	12	5	3	4
  15	3	13	6	2	1
  16	3	13	6	2	10
  17	3	13	6	2	3
  18	3	14	6	2	1
  19	3	14	6	2	10
  20	3	14	6	2	3
  21	1	9	7	4	3
  22	1	9	7	4	11
  23	1	15	7	4	3
  24	1	15	7	4	11
  25	1	16	8	5	3
  26	1	16	8	5	12
  27	1	9	8	5	3
  28	1	9	8	5	12
  29	1	8	9	7	4
  30	1	8	9	7	15
  31	1	17	9	7	4
  32	1	17	9	7	15
  33	1	17	9	8	16
  34	1	17	9	8	5
  35	1	7	9	8	16
  36	1	7	9	8	5
  37	2	20	19	18	26
  38	2	20	19	18	22
  39	2	21	19	18	26
  40	2	21	19	18	22
  41	1	27	20	19	18
  42	1	27	20	19	21
  43	1	23	20	19	18
  44	1	23	20	19	21
  45	1	24	21	19	18
  46	1	24	21	19	20
  47	1	28	21	19	18
  48	1	28	21	19	20
  49	3	29	22	18	26
  50	3	29	22	18	19
  51	3	30	22	18	26
  52	3	30	22	18	19
  53	1	25	23	20	19
  54	1	25	23	20	27
  55	1	31	23	20	19
  56	1	31	23	20	27
  57	1	32	24	21	19
  58	1	32	24	21	28
  59	1	25	24	21	19
  60	1	25	24	21	28
  61	1	24	25	23	20
  62	1	24	25	23	31
  63	1	33	25	23	20
  64	1	33	25	23	31
  65	1	33	25	24	32
  66	1	33	25	24	21
  67	1	23	25	24	32
  68	1	23	25	24	21
  69	3	1	2	6	18
  70	3	10	2	6	18
  71	3	3	2	6	18
  72	2	6	18	19	20
  73	2	6	18	19	21
  74	3	6	18	22	29
  75	3	6	18	22	30
  76	3	2	6	18	26
  77	3	2	6	18	19
  78	3	2	6	18	22
  79	3	13	6	18	26
  80	3	13	6	18	19
  81	3	13	6	18	22
  82	3	14	6	18	26
  83	3	14	6	18	19
  84	3	14	6	18	22
  85	2	36	35	34	42
  86	2	36	35	34	38
  87	2	37	35	34	42
  88	2	37	35	34	38
  89	1	43	36	35	34
  90	1	43	36	35	37
  91	1	39	36	35	34
  92	1	39	36	35	37
  93	1	40	37	35	34
  94	1	40	37	35	36
  95	1	44	37	35	34
  96	1	44	37	35	36
  97	3	45	38	34	42
  98	3	45	38	34	35
  99	3	46	38	34	42
 100	3	46	38	34	35
 101	1	41	39	36	35
 102	1	41	39	36	43
 103	1	47	39	36	35
 104	1	47	39	36	43
 105	1	48	40	37	35
 106	1	48	40	37	44
 107	1	41	40	37	35
 108	1	41	40	37	44
 109	1	40	41	39	36
 110	1	40	41	39	47
 111	1	49	41	39	36
 112	1	49	41	39	47
 113	1	49	41	40	48
 114	1	49	41	40	37
 115	1	39	41	40	48
 116	1	39	41	40	37
 117	3	26	18	22	34
 118	3	19	18	22	34
 119	3	6	18	22	34
 120	2	22	34	35	36
 121	2	22	34	35	37
 122	3	22	34	38	45
 123	3	22	34	38	46
 124	3	18	22	34	42
 125	3	18	22	34	35
 126	3	18	22	34	38
 127	3	29	22	34	42
 128	3	29	22	34	35
 129	3	29	22	34	38
 130	3	30	22	34	42
 131	3	30	22	34	35
 132	3	30	22	34	38
 133	2	52	51	50	58
 134	2	52	51	50	54
 135	2	53	51	50	58
 136	2	53	51	50	54
 137	1	59	52	51	50
 138	1	59	52	51	53
 139	1	55	52	51	50
 140	1	55	52	51	53
 141	1	56	53	51	50
 142	1	56	53	51	52
 143	1	60	53	51	50
 144	1	60	53	51	52
 145	3	61	54	50	58
 146	3	61	54	50	51
 147	3	62	54	50	58
 148	3	62	54	50	51
 149	1	57	55	52	51
 150	1	57	55	52	59
 151	1	63	55	52	51
 152	1	63	55	52	59
 153	1	64	56	53	51
 154	1	64	56	53	60
 155	1	57	56	53	51
 156	1	57	56	53	60
 157	1	56	57	55	52
 158	1	56	57	55	63
 159	1	65	57	55	52
 160	1	65	57	55	63
 161	1	65	57	56	64
 162	1	65	57	56	53
 163	1	55	57	56	64
 164	1	55	57	56	53
 165	3	42	34	38	50
 166	3	35	34	38	50
 167	3	22	34	38	50
 168	2	38	50	51	52
 169	2	38	50	51	53
 170	3	38	50	54	61
 171	3	38	50	54	62
 172	3	34	38	50	58
 173	3	34	38	50	51
 174	3	34	38	50	54
 175	3	45	38	50	58
 176	3	45	38	50	51
 177	3	45	38	50	54
 178	3	46	38	50	58
 179	3	46	38	50	51
 180	3	46	38	50	54
 181	2	68	67	66	74
 182	2	68	67	66	70
 183	2	69	67	66	74
 184	2	69	67	66	70
 185	1	75	68	67	66
 186	1	75	68	67	69
 187	1	71	68	67	66
 188	1	71	68	67	69
 189	1	72	69	67	66
 190	1	72	69	67	68
 191	1	76	69	67	66
 192	1	76	69	67	68
 193	3	77	70	66	74
 194	3	77	70	66	67
 195	3	78	70	66	74
 196	3	78	70	66	67
 197	1	73	71	68	67
 198	1	73	71	68	75
 199	1	79	71	68	67
 200	1	79	71	68	75
 201	1	80	72	69	67
 202	1	80	72	69	76
 203	1	73	72	69	67
 204	1	73	72	69	76
 205	1	72	73	71	68
 206	1	72	73	71	79
 207	1	81	73	71	68
 208	1	81	73	71	79
 209	1	81	73	72	80
 210	1	81	73	72	69
 211	1	71	73	72	80
 212	1	71	73	72	69
 213	3	58	50	54	66
 214	3	51	50	54	66
 215	3	38	50	54	66
 216	2	54	66	67	68
 217	2	54	66	67	69
 218	3	54	66	70	77
 219	3	54	66	70	78
 220	3	50	54	66	74
 221	3	50	54	66	67
 222	3	50	54	66	70
 223	3	61	54	66	74
 224	3	61	54	66	67
 225	3	61	54	66	70
 226	3	62	54	66	74
 227	3	62	54	66	67
 228	3	62	54	66	70
 229	2	84	83	82	90
 230	2	84	83	82	86
 231	2	85	83	82	90
 232	2	85	83	82	86
 233	1	91	84	83	82
 234	1	91	84	83	85
 235	1	87	84	83	82
 236	1	87	84	83	85
 237	1	88	85	83	82
 238	1	88	85	83	84
 239	1	92	85	83	82
 240	1	92	85	83	84
 241	3	93	86	82	90
 242	3	93	86	82	83
 243	3	94	86	82	90
 244	3	94	86	82	83
 245	1	89	87	84	83
 246	1	89	87	84	91
 247	1	95	87	84	83
 248	1	95	87	84	91
 249	1	96	88	85	83
 250	1	96	88	85	92
 251	1	89	88	85	83
 252	1	89	88	85	92
 253	1	88	89	87	84
 254	1	88	89	87	95
 255	1	97	89	87	84
 256	1	97	89	87	95
 257	1	97	89	88	96
 258	1	97	89	88	85
 259	1	87	89	88	96
 260	1	87	89	88	85
 261	3	74	66	70	82
 262	3	67	66	70	82
 263	3	54	66	70	82
 264	2	70	82	83	84
 265	2	70	82	83	85
 266	3	70	82	86	93
 267	3	70	82	86	94
 268	3	66	70	82	90
 269	3	66	70	82	83
 270	3	66	70	82	86
 271	3	77	70	82	90
 272	3	77	70	82	83
 273	3	77	70	82	86
 274	3	78	70	82	90
 275	3	78	70	82	83
 276	3	78	70	82	86
 277	2	100	99	98	106
 278	2	100	99	98	102
 279	2	101	99	98	106
 280	2	101	99	98	102
 281	1	107	100	99	98
 282	1	107	100	99	101
 283	1	103	100	99	98
 284	1	103	100	99	101
 285	1	104	101	99	98
 286	1	104	101	99	100
 287	1	108	101	99	98
 288	1	108	101	99	100
 289	3	109	102	98	106
 290	3	109	102	98	99
 291	3	110	102	98	106
 292	3	110	102	98	99
 293	1	105	103	100	99
 294	1	105	103	100	107
 295	1	111	103	100	99
 296	1	111	103	100	107
 297	1	112	104	101	99
 298	1	112	104	101	108
 299	1	105	104	101	99
 300	1	105	104	101	108
 301	1	104	105	103	100
 302	1	104	105	103	111
 303	1	113	105	103	100
 304	1	113	105	103	111
 305	1	113	105	104	112
 306	1	113	105	104	101