pySIMM System Object

472 atoms
521 bonds
1020 angles
1771 dihedrals
120 impropers

4 atom types
7 bond types
3 angle types
5 dihedral types
1 improper types

-13.015183 13.015183 xlo xhi
-13.015183 13.015183 ylo yhi
-13.015183 13.015183 zlo zhi

Masses

   1	28.086	# Si3
   2	1.008	# H_
   3	12.011	# C_R
   4	12.011	# C_3

Pair Coeffs

   1	0.31	3.80413752646	# Si3
   2	0.0152	2.84642140446	# H_
   3	0.0951	3.47299047293	# C_R
   4	0.0951	3.47299047293	# C_3

Bond Coeffs

   1	350.0	1.09	# C_3,H_
   2	350.0	1.627	# Si3,C_R
   3	525.0	1.39	# C_R,C_R
   4	350.0	1.53	# C_3,C_3
   5	350.0	1.02	# C_R,H_
   6	350.0	1.697	# Si3,C_3
   7	350.0	1.46	# C_R,C_3

Angle Coeffs

   1	50.0	109.471	# X,Si3,X
   2	50.0	109.471	# X,C_3,X
   3	50.0	120.0	# X,C_R,X

Dihedral Coeffs

   1	0.111111	1	3	# X,C_3,C_3,X
   2	0.083333	-1	6	# X,Si3,C_R,C_R
   3	0.111111	1	3	# X,Si3,C_3,X
   4	3.125000	-1	2	# X,C_R,C_R,X
   5	0.083333	-1	6	# C_R,C_R,C_3,X

Improper Coeffs

   1	40.0	0.0	# C_R,X,X,X

Atoms

   1	1	2	0.0333913854865	6.75232596136	0.647124003151	1.6480016164
   2	1	1	0.0647878772074	-2.79377433012	0.938965319545	-5.94865076614
   3	1	4	-0.0461252212321	5.14525004312	-0.0767938404262	0.383164781558
   4	1	4	-0.0171871909276	4.3306206387	-1.38567550605	0.253700621059
   5	1	4	-0.0172184501778	5.37366904812	-2.35795495523	-0.511536563277
   6	1	4	-0.0461257660615	6.59505722291	-1.41963539809	-0.692184135054
   7	1	4	-0.0610547704878	7.24358729734	-1.23830049654	0.690634886376
   8	1	4	-0.0610547661056	6.24367573026	-0.320030887144	1.43255340783
   9	1	3	-0.0460532386513	3.52788729186	-1.53848844146	-0.990328241401
  10	1	3	-0.0468938850378	4.35641242815	-2.3233398522	-1.59738718549
  11	1	3	-0.0655757797683	2.34919490626	-1.07436936919	-1.55796431926
  12	1	3	-0.0261091222654	2.04364570117	-1.48710891745	-2.89305763756
  13	1	3	-0.0721273413188	2.97165973683	-2.38085272879	-3.53294787762
  14	1	3	-0.075591499516	4.14648272052	-2.8060239093	-2.87752945839
  15	1	4	-0.0574372549304	5.98976500552	-0.0241086057032	-0.894455742823
  16	1	3	-0.0266927623047	0.827357772697	-0.951057025487	-3.61900566887
  17	1	3	-0.072544623331	0.603121908077	-1.22149111198	-4.99183976368
  18	1	3	-0.0801360777024	-0.484079015652	-0.666276662908	-5.67452763306
  19	1	3	-0.0686276200871	-1.38368153022	0.171986609893	-5.01354105887
  20	1	3	-0.0801360777024	-1.19724787942	0.434982705034	-3.65502439803
  21	1	3	-0.072544623331	-0.111895178414	-0.114568171746	-2.96769454399
  22	1	4	-0.0747602256148	-2.11626101703	1.99316053626	-7.33511275827
  23	1	4	-0.0747602256148	-3.87540498334	-0.397526838947	-6.67268900429
  24	1	4	-0.0747602256148	-3.8333215449	2.02901743359	-4.84146997381
  25	1	2	0.0411173219023	4.50083230767	0.79979996802	0.606470149217
  26	1	2	0.0493872767323	3.8165214909	-1.78039905847	1.15727009454
  27	1	2	0.0493864465891	5.54304474665	-3.37492380638	-0.095455779589
  28	1	2	0.0411173152841	7.29921684179	-1.78475092867	-1.46942021917
  29	1	2	0.0861045002907	1.74899814072	-0.396860540304	-0.97582916363
  30	1	2	0.0851597206542	2.82950553205	-2.74709588207	-4.53478402926
  31	1	2	0.0846713007392	4.86441531008	-3.45708065611	-3.35864128456
  32	1	2	0.034011099193	6.74420129158	0.796216522024	-0.894710886141
  33	1	2	0.034011099193	5.38981645519	0.0762971408236	-1.82526315739
  34	1	2	0.0851357626922	1.26311207412	-1.8390678552	-5.5760253737
  35	1	2	0.0840090236298	-0.611949687189	-0.881960220071	-6.72835146299
  36	1	2	0.0840090236298	-1.88082825213	1.07883398846	-3.11831152425
  37	1	2	0.0851357626922	-0.0309201510009	0.146057521774	-1.92669424484
  38	1	2	0.0246564083843	-1.51380451973	1.36555752234	-8.02304074563
  39	1	2	0.0246564083843	-1.47837067415	2.79642618765	-6.91241202045
  40	1	2	0.0246564083843	-2.95848409899	2.44936010482	-7.89520833391
  41	1	2	0.0246564083843	-3.27464950959	-1.02933793398	-7.35853406767
  42	1	2	0.0246564083843	-4.70740618889	0.0715406392637	-7.23723656194
  43	1	2	0.0246564083843	-4.2878861864	-1.02262113479	-5.85497204322
  44	1	2	0.0246564083843	-3.20288702605	2.84065253696	-4.42316843613
  45	1	2	0.0246564083843	-4.25879755652	1.42342942982	-4.01541877489
  46	1	2	0.0246564083843	-4.65777622926	2.47509670637	-5.43436682472
  47	1	2	0.0333913854612	7.45699056803	-2.20014520513	1.2039053907
  48	1	2	0.0333913854865	5.85286644118	-0.737924338252	2.38504840156
  49	1	1	0.0647878772074	11.918281923370014	-0.7763675833347501	11.760961241512927
  50	1	4	-0.0461252212321	8.973257040389022	-0.6341272913338998	1.9906818730427325
  51	1	4	-0.0171871909276	10.308219838861575	0.1167192786540181	2.208986717312633
  52	1	4	-0.0172184501778	11.360320440895247	-0.8308420034140753	1.425355936953759
  53	1	4	-0.0461257660615	10.433056746597375	-1.9622224972662667	0.9105487600730997
  54	1	4	-0.0610547704878	9.582028171933038	-1.3760740302830048	-0.22868009742567288
  55	1	4	-0.0610547661056	8.582116604846554	-0.45780442089067663	0.5132384240260501
  56	1	3	-0.0460532386513	11.095178066929964	-0.27942446325834536	3.4086147067406616
  57	1	3	-0.0468938850378	11.941716063421845	-1.0281592234233656	2.781130938491519
  58	1	3	-0.0655757797683	11.092048571369784	-0.10667877402876114	4.785960742822421
  59	1	3	-0.0261091222654	12.080677930235781	-0.8048826676697594	5.548398762396967
  60	1	3	-0.0721273413188	13.024547871362476	-1.6097481833981535	4.8198738102994065
  61	1	3	-0.075591499516	12.955495405032726	-1.7251104319734678	3.4154250969255684
  62	1	4	-0.0574372549304	9.362425564661164	-2.1162789501438386	1.9990353156137057
  63	1	3	-0.0266927623047	12.087341346105273	-0.7464000240540016	7.061753935277632
  64	1	3	-0.072544623331	12.954295321077256	-1.5604288373743247	7.832362568998135
  65	1	3	-0.0801360777024	12.907174267379524	-1.5536624040541576	9.230241491393969
  66	1	3	-0.0686276200871	11.999605457095473	-0.735596904281602	9.905490291971557
  67	1	3	-0.0801360777024	11.150742696571116	0.0928356518787481	9.168860477418416
  68	1	3	-0.072544623331	11.19106661272728	0.08914430928273975	7.772157453946472
  69	1	4	-0.0747602256148	11.48613130365688	-2.5053148100561664	12.323647680921129
  70	1	4	-0.0747602256148	13.572674597694888	-0.2982441865169927	12.478422339103338
  71	1	4	-0.0747602256148	10.612643442528636	0.3924505363565174	12.412032428425377
  72	1	2	0.0411173219023	8.185700608149908	-0.3083890993318059	2.702865631850813
  73	1	2	0.0493872767323	10.339692329500142	1.2096819312893314	2.0065403484210553
  74	1	2	0.0493864465891	12.061927175095281	-0.35236077810576893	0.7078319320921631
  75	1	2	0.0411173152841	10.99692918672831	-2.8740241213997315	0.6208735635367755
  76	1	2	0.0861045002907	10.320095401358019	0.5127169319303568	5.2085396972773195
  77	1	2	0.0851597206542	13.804603387022567	-2.1717746914247957	5.303254754031827
  78	1	2	0.0846713007392	13.643721678906072	-2.3481835002088385	2.85964166105313
  79	1	2	0.034011099193	8.527069237831123	-2.7964782871749687	1.7133498957417184
  80	1	2	0.034011099193	9.759942969718088	-2.470485112367405	2.9752217359861985
  81	1	2	0.0851357626922	13.665447771117098	-2.2338889038846146	7.3862968657454795
  82	1	2	0.0840090236298	13.573712643786836	-2.203400814101851	9.78430065906923
  83	1	2	0.0840090236298	10.440053272473552	0.7382968465651889	9.667044879652996
  84	1	2	0.0851357626922	10.496599167100817	0.7459545443355682	7.277708657714849
  85	1	2	0.0246564083843	12.25918060651297	-3.2182823207868436	11.971289349110723
  86	1	2	0.0246564083843	10.498899478868823	-2.794520391336592	11.908257303225763
  87	1	2	0.0246564083843	11.4399336376719	-2.530329025360307	13.431981964740888
  88	1	2	0.0246564083843	14.348804959280855	-1.0074956197116685	12.124784224166984
  89	1	2	0.0246564083843	13.515525360766624	-0.33625878477988125	13.58578547061776
  90	1	2	0.0246564083843	13.832323976898778	0.7302339447705124	12.155374999937084
  91	1	2	0.0246564083843	9.620904128779713	0.10228274052774888	12.007766199525792
  92	1	2	0.0246564083843	10.853122195334743	1.4298639142462715	12.102079685536742
  93	1	2	0.0246564083843	10.58719756528749	0.3348403542057843	13.51940431457925
  94	1	2	0.0333913854612	10.186303398863993	-0.8667735883180884	-1.0094472329608997
  95	1	2	0.0333913854865	8.595849378349099	0.6025191580913345	0.18136665844978658
  96	1	1	0.0647878772074	3.7223161717558977	3.896807388707119	-9.310462647585613
  97	1	4	-0.0461252212321	8.239832083439426	-1.6249292839269058	-2.0129125856967134
  98	1	4	-0.0171871909276	7.290787484259358	-2.478207261561519	-2.8874320489740746
  99	1	4	-0.0172184501778	8.327589745988178	-3.451613191012936	-3.65969316192929
 100	1	4	-0.0461257660615	9.687183565410736	-2.96663445276343	-3.0929776427894837
 101	1	4	-0.0610547704878	9.777481268807632	-3.452664117487023	-1.636514962261789
 102	1	4	-0.0610547661056	8.777569701721148	-2.534394508094695	-0.8945964408100657
 103	1	3	-0.0460532386513	7.0140568986277705	-1.95880874551779	-4.254540601543173
 104	1	3	-0.0468938850378	7.834779907379099	-2.74342120438239	-4.872410516898027
 105	1	3	-0.0655757797683	6.2637886946345995	-0.9764463760212578	-4.886200927251554
 106	1	3	-0.0261091222654	6.417391944287739	-0.8253525907595041	-6.3003314480137895
 107	1	3	-0.0721273413188	7.318328129796932	-1.7297205540668807	-6.963566057019838
 108	1	3	-0.075591499516	8.039298640013733	-2.703535801793192	-6.240767145362193
 109	1	4	-0.0574372549304	9.501725152087898	-1.460263873641324	-2.866614316954429
 110	1	3	-0.0266927623047	5.708558155649835	0.2829427287169306	-7.050627819397704
 111	1	3	-0.072544623331	5.978693471870786	0.5453946881353939	-8.41673017644406
 112	1	3	-0.0801360777024	5.373440101967245	1.6142889005434213	-9.085658558934316
 113	1	3	-0.0686276200871	4.4787838664361015	2.4532483559959957	-8.418867360483135
 114	1	3	-0.0801360777024	4.178579193400587	2.2012241874415146	-7.078772982182841
 115	1	3	-0.072544623331	4.781531392234666	1.1365359072757926	-6.404008955282391
 116	1	4	-0.0747602256148	5.07809257782271	5.042225980442577	-9.89571070307945
 117	1	4	-0.0747602256148	2.7553080096941596	3.2933789563715328	-10.78732989671635
 118	1	4	-0.0747602256148	2.5812580818132886	4.867122193169131	-8.191893496563482
 119	1	2	0.0411173219023	7.750825061911165	-0.7001568845668782	-1.6397847895223214
 120	1	2	0.0493872767323	6.4009674712516675	-2.9404310250490484	-2.4066910096208485
 121	1	2	0.0493864465891	8.114804718349259	-4.542809370031753	-3.666793930017212
 122	1	2	0.0411173152841	10.546066782856357	-3.28323978635584	-3.721727777207835
 123	1	2	0.0861045002907	5.636641464610711	-0.3555468382569664	-4.2703228338942285
 124	1	2	0.0851597206542	7.500655669649514	-1.695634433139659	-8.0235718799149
 125	1	2	0.0846713007392	8.739104774108348	-3.3716021115266868	-6.725256010541383
 126	1	2	0.034011099193	10.347497936531571	-0.9812220304534192	-2.3213668505966902
 127	1	2	0.034011099193	9.338712885390242	-0.880769206865677	-3.8015126815292493
 128	1	2	0.0851357626922	6.672623979226263	-0.04142791120216982	-8.993237390508266
 129	1	2	0.0840090236298	5.619043437515293	1.7938277704264287	-10.125302616181223
 130	1	2	0.0840090236298	3.486927967670482	2.8340942276676877	-6.539346060227544
 131	1	2	0.0851357626922	4.507687357491328	1.016595759944435	-5.3701868546801546
 132	1	2	0.0246564083843	5.757972149066548	4.498004780244155	-10.582494034167125
 133	1	2	0.0246564083843	5.653083174604729	5.4128505579613275	-9.022304184812437
 134	1	2	0.0246564083843	4.6264861514270965	5.903234849371126	-10.430388347333038
 135	1	2	0.0246564083843	3.432004384644592	2.745328952275811	-11.474497313827804
 136	1	2	0.0246564083843	2.3172229043282595	4.163827080475505	-11.317769105014928
 137	1	2	0.0246564083843	1.943396250185347	2.619140367542939	-10.447114861619822
 138	1	2	0.0246564083843	3.152912277582244	5.2490483594468245	-7.320963370794386
 139	1	2	0.0246564083843	1.758385110935846	4.211964113484262	-7.840076478181814
 140	1	2	0.0246564083843	2.156202473399766	5.723451321561786	-8.754269770620702
 141	1	2	0.0333913854612	9.578215174147926	-4.539791297834702	-1.524352904201252
 142	1	2	0.0333913854865	7.975369862855939	-3.073529245112631	-0.34648814506438574
 143	1	1	0.0647878772074	9.834178478049678	-8.052314173881513	9.47466329467006
 144	1	4	-0.0461252212321	10.959177757144339	-3.8963118344327223	0.22189160308852363
 145	1	4	-0.0171871909276	12.230069109132721	-3.740471869392594	1.090282256387736
 146	1	4	-0.0172184501778	13.28708639023262	-4.689152643452783	0.31466346059644246
 147	1	4	-0.0461257660615	12.420351375607195	-5.22672617309532	-0.8535194551534551
 148	1	4	-0.0610547704878	12.209359062565616	-4.066388423065585	-1.840819105560209
 149	1	4	-0.0610547661056	11.209447495479132	-3.148118813673257	-1.098900584108486
 150	1	3	-0.0460532386513	12.398587038274878	-4.7292638757615535	2.1899333400040293
 151	1	3	-0.0468938850378	13.250683767553404	-5.481355460326218	1.5740960137726197
 152	1	3	-0.0655757797683	11.902104914321994	-5.004403526190393	3.4567153430957713
 153	1	3	-0.0261091222654	12.359015710328533	-6.192634405848979	4.109040661566896
 154	1	3	-0.0721273413188	13.32623243796547	-6.995522811045673	3.4095339921347882
 155	1	3	-0.075591499516	13.779687654929303	-6.636842962891547	2.122568564185606
 156	1	4	-0.0574372549304	11.006810382916655	-5.3473306521297905	-0.26858875701882545
 157	1	3	-0.0266927623047	11.796046274904834	-6.615163527279094	5.450026513961403
 158	1	3	-0.072544623331	12.116763855670229	-7.868529191717664	6.02821723906381
 159	1	3	-0.0801360777024	11.539191986324964	-8.28314064230377	7.232725329856022
 160	1	3	-0.0686276200871	10.627799035919908	-7.46395558190202	7.901434516847312
 161	1	3	-0.0801360777024	10.313254524044366	-6.214397478201479	7.363700134902777
 162	1	3	-0.072544623331	10.884872916271897	-5.795155023548707	6.159579228231054
 163	1	4	-0.0747602256148	8.879140632580556	-9.622694333792072	9.13637707402106
 164	1	4	-0.0747602256148	11.146141584983281	-8.401244387018018	10.754260122739602
 165	1	4	-0.0747602256148	8.644353369391094	-6.7810092387846606	10.15497300561352
 166	1	2	0.0411173219023	10.042155391122131	-3.5666944825985114	0.7547880204013386
 167	1	2	0.0493872767323	12.55719956552038	-2.7151590619312866	1.3700352212682068
 168	1	2	0.0493864465891	14.291390644924167	-4.272853453978197	0.08205877695646002
 169	1	2	0.0411173152841	12.855137480168791	-6.135313769195619	-1.3211471633710392
 170	1	2	0.0861045002907	11.169686250637366	-4.328267841912245	3.8623495964967205
 171	1	2	0.0851597206542	13.729861973426361	-7.906074735885714	3.8169599734782906
 172	1	2	0.0846713007392	14.487046706566051	-7.2468165069267805	1.5763578652381616
 173	1	2	0.034011099193	10.226212386963093	-5.585505398577979	-1.0275663909894353
 174	1	2	0.034011099193	10.91867990560582	-6.099484516905297	0.5456099918577826
 175	1	2	0.0851357626922	12.792479329337745	-8.565214363507692	5.563137407148705
 176	1	2	0.0840090236298	11.795675921394398	-9.256034960645472	7.634107450022993
 177	1	2	0.0840090236298	9.612290425737916	-5.559049246910788	7.862754579457267
 178	1	2	0.0851357626922	10.581777885536667	-4.825280731852036	5.805119652751016
 179	1	2	0.0246564083843	9.56667015080274	-10.404379131137546	8.753811616651815
 180	1	2	0.0246564083843	8.09057005870515	-9.421917751955935	8.382280976561322
 181	1	2	0.0246564083843	8.407095154039052	-9.975519961353278	10.076511087193952
 182	1	2	0.0246564083843	11.837689953376024	-9.180248055370242	10.372959730834326
 183	1	2	0.0246564083843	10.661971853752185	-8.761691675645231	11.685185293460052
 184	1	2	0.0246564083843	11.712099855824825	-7.471592815686426	10.966354067930771
 185	1	2	0.0246564083843	7.847257654372539	-6.583061249423564	9.408896324161168
 186	1	2	0.0246564083843	9.189820837809176	-5.841114986191462	10.376764089383467
 187	1	2	0.0246564083843	8.1847812111028	-7.169445390161674	11.086718522173515
 188	1	2	0.0333913854612	13.156473662968956	-3.570539541936914	-2.14287974646906
 189	1	2	0.0333913854865	11.56366398901067	-2.105551357142984	-0.9499129192022336
 190	1	1	0.0647878772074	11.48179701362125	5.410125323533501	-9.20862869509191
 191	1	4	-0.0461252212321	11.634469564106947	-3.2843507653113075	-3.8668556343157334
 192	1	4	-0.0171871909276	10.942415064466134	-3.4549269618503433	-5.23999713492708
 193	1	4	-0.0172184501778	11.976057388942154	-4.425064714041451	-6.020562024494497
 194	1	4	-0.0461257660615	13.081648316206016	-4.6227555966455105	-4.951238300598376
 195	1	4	-0.0610547704878	12.505726811521873	-5.539900603962105	-3.85907461964364
 196	1	4	-0.0610547661056	11.50581524443539	-4.621630994569776	-3.117156098191917
 197	1	3	-0.0460532386513	11.322818121007783	-2.473946162772208	-6.292760458952854
 198	1	3	-0.0468938850378	12.140708861176195	-3.252375642156962	-6.922100178636547
 199	1	3	-0.0655757797683	11.087957266715708	-1.1529789018979155	-6.648876795027828
 200	1	3	-0.0261091222654	11.799637354688075	-0.628249195966152	-7.773313813315829
 201	1	3	-0.0721273413188	12.682986718475341	-1.5257754119219493	-8.468718848650411
 202	1	3	-0.075591499516	12.858201717001151	-2.8578351997119538	-8.038057373655892
 203	1	4	-0.0574372549304	13.132375897156528	-3.291225681706231	-4.1901586082187245
 204	1	3	-0.0266927623047	11.673112438260103	0.828024956210494	-8.169502580477506
 205	1	3	-0.072544623331	12.493879889177023	1.3980849688430412	-9.1742225133507
 206	1	3	-0.0801360777024	12.421482934866114	2.7594362671704555	-9.486973186489493
 207	1	3	-0.0686276200871	11.529196372047423	3.595557711668196	-8.813475695874851
 208	1	3	-0.0801360777024	10.693427278196468	3.0528997015447494	-7.835465329972525
 209	1	3	-0.072544623331	10.762362005386967	1.6942353620494632	-7.516563784082556
 210	1	4	-0.0747602256148	13.15964441350179	6.160966328938178	-8.871442415244989
 211	1	4	-0.0747602256148	11.055267406505765	5.655867109348444	-11.008087224471897
 212	1	4	-0.0747602256148	10.220687560954161	6.304110198131774	-8.157384041177691
 213	1	2	0.0411173219023	11.23773274388886	-2.415178166672691	-3.300556155895494
 214	1	2	0.0493872767323	9.86269349064839	-3.7202297849835837	-5.258921856062857
 215	1	2	0.0493864465891	11.56634330898369	-5.323073286627336	-6.532179035789125
 216	1	2	0.0411173152841	14.03276264205144	-4.994019875254123	-5.388033933132435
 217	1	2	0.0861045002907	10.412127147873594	-0.5840191665828067	-6.034324779283011
 218	1	2	0.0851597206542	13.260972001897901	-1.225255566654746	-9.325245774524618
 219	1	2	0.0846713007392	13.539531443025417	-3.5339526095661173	-8.537482776021248
 220	1	2	0.034011099193	13.782054173814098	-3.3165365599414978	-3.284959742619452
 221	1	2	0.034011099193	13.461518950097178	-2.4295073002326233	-4.811067862241739
 222	1	2	0.0851357626922	13.221664435449997	0.8249401094715729	-9.722032247092539
 223	1	2	0.0840090236298	13.078086266331209	3.1619813728800015	-10.248710984539603
 224	1	2	0.0840090236298	9.991241411959408	3.677836122940281	-7.3004169317221805
 225	1	2	0.0851357626922	10.094603562257355	1.3559390858172264	-6.743376470996964
 226	1	2	0.0246564083843	13.925708571202414	5.664826163535162	-9.501581235315854
 227	1	2	0.0246564083843	13.41747647377921	6.026848476705668	-7.800764713784068
 228	1	2	0.0246564083843	13.132109588773538	7.2443009919592924	-9.10975452430392
 229	1	2	0.0246564083843	11.817836454485732	5.1574988199959115	-11.641011663272264
 230	1	2	0.0246564083843	11.040197912354163	6.741779664236644	-11.235091813593344
 231	1	2	0.0246564083843	10.056787520943207	5.219837628509884	-11.214147555362254
 232	1	2	0.0246564083843	10.478749956347832	6.181932360251576	-7.085165884264372
 233	1	2	0.0246564083843	9.211738491889921	5.885085759776455	-8.34861046742526
 234	1	2	0.0246564083843	10.226758648709472	7.383091705870111	-8.414290576423825
 235	1	2	0.0333913854612	12.063245037246134	-6.476011169203517	-4.261616169147784
 236	1	2	0.0333913854865	10.463627504395536	-5.005555257557505	-3.0845919338398358
 237	1	1	0.0647878772074	7.3621197429814735	-13.119924920710538	3.9322548660156897
 238	1	4	-0.0461252212321	12.767464466694898	-6.907925739626125	-2.096433000512981
 239	1	4	-0.0171871909276	13.61078022566749	-7.463154034540626	-0.9242157334524692
 240	1	4	-0.0172184501778	14.668926094807288	-8.41696765736999	-1.6919605820366255
 241	1	4	-0.0461257660615	14.227594621937955	-8.242334811988666	-3.1683061074367647
 242	1	4	-0.0610547704878	14.651108147915973	-6.831420790811422	-3.610595569394796
 243	1	4	-0.0610547661056	13.65119658082949	-5.913151181419092	-2.8686770479430717
 244	1	3	-0.0460532386513	13.140577923779556	-8.742349549055746	-0.3259607201482022
 245	1	3	-0.0468938850378	13.992534325363136	-9.502912949942743	-0.9315016378671985
 246	1	3	-0.0655757797683	12.151424071361388	-9.21738792895779	0.5242428812710909
 247	1	3	-0.0261091222654	12.07239819422778	-10.630393655733972	0.7324690728056344
 248	1	3	-0.0721273413188	13.049913434723207	-11.448348099154291	0.06548927319539954
 249	1	3	-0.075591499516	14.024944308937382	-10.878353721715165	-0.7800721284880767
 250	1	4	-0.0574372549304	12.705116676005648	-8.061904080014342	-3.102783934785427
 251	1	3	-0.0266927623047	10.965048137944649	-11.237628342133792	1.5683819800409893
 252	1	3	-0.072544623331	10.778589318563185	-12.640141260328937	1.647630910447651
 253	1	3	-0.0801360777024	9.712062148931949	-13.192873658795826	2.3641072548746145
 254	1	3	-0.0686276200871	8.799959924420072	-12.369378768215942	3.0265262667012056
 255	1	3	-0.0801360777024	8.975683957034812	-10.98493542392772	2.9825983619293606
 256	1	3	-0.072544623331	10.037635202202985	-10.426221990960894	2.266694853970229
 257	1	4	-0.0747602256148	6.313816007248624	-14.09400687238685	2.7302347625785526
 258	1	4	-0.0747602256148	7.982524407927985	-14.266346689382601	5.266864438148083
 259	1	4	-0.0747602256148	6.286151187858033	-11.805080226026586	4.712124359743353
 260	1	2	0.0411173219023	11.803386170813786	-6.475819724620431	-1.7538054458608943
 261	1	2	0.0493872767323	14.005552860304109	-6.746920281245441	-0.17075293570943328
 262	1	2	0.0493864465891	15.747277247325458	-8.308073100735374	-1.4442959753644486
 263	1	2	0.0411173152841	14.615019986964207	-9.04956856153246	-3.825208923789182
 264	1	2	0.0861045002907	11.472605999568184	-8.4986263324366	0.9493587510916246
 265	1	2	0.0851597206542	13.073037229549824	-12.52008821883192	0.15959530906024888
 266	1	2	0.0846713007392	14.748517747330556	-11.486024252863928	-1.3072805169126762
 267	1	2	0.034011099193	12.2449082026847	-7.777227638577696	-4.077091368183414
 268	1	2	0.034011099193	12.161093117779783	-8.95603164020888	-2.7272892022047523
 269	1	2	0.0851357626922	11.424975701588217	-13.33976817285173	1.146664137983004
 270	1	2	0.0840090236298	9.592317584520181	-14.269244673876614	2.386504736603321
 271	1	2	0.0840090236298	8.285148324179502	-10.324296445281508	3.4891593055979513
 272	1	2	0.0851357626922	10.096764307753805	-9.351675257407699	2.270865739597931
 273	1	2	0.0246564083843	6.9219858191905725	-14.89895807609106	2.2695099754250574
 274	1	2	0.0246564083843	5.933339290163882	-13.417591125288755	1.9374454369477503
 275	1	2	0.0246564083843	5.45632814810226	-14.544351941549003	3.271592971251816
 276	1	2	0.0246564083843	8.594371999303695	-15.070644071874785	4.809454233360338
 277	1	2	0.0246564083843	7.11610519021586	-14.71656568657965	5.793727649752377
 278	1	2	0.0246564083843	8.599096746435865	-13.693585735275054	5.988894971322926
 279	1	2	0.0246564083843	5.894343468915244	-11.13084806369103	3.922774562347316
 280	1	2	0.0246564083843	6.882611602834236	-11.219413455862806	5.441066509500347
 281	1	2	0.0246564083843	5.435918035928784	-12.288646051368179	5.235102944316525
 282	1	2	0.0333913854612	15.720678610179249	-6.6110298121504005	-3.406684675181755
 283	1	2	0.0333913854865	14.124049535770387	-5.149760325499749	-2.214262779988598
 284	1	1	0.0647878772074	18.740083693502463	4.143206276481673	-6.341184735412609
 285	1	4	-0.0461252212321	15.068882725987585	-5.311852194243704	-5.211620407327625
 286	1	4	-0.0171871909276	14.937831796001554	-4.804787475736113	-6.667389714255962
 287	1	4	-0.0172184501778	15.972474959112857	-5.768373766586317	-7.4547144535551855
 288	1	4	-0.0461257660615	16.51823045452155	-6.645915049229665	-6.298453909176072
 289	1	4	-0.0610547704878	15.394656814786119	-7.611321476324577	-5.88464869338547
 290	1	4	-0.0610547661056	14.394745247699635	-6.693051866932247	-5.142730171933746
 291	1	3	-0.0460532386513	15.88303509505143	-3.7298188217904267	-7.075278849315277
 292	1	3	-0.0468938850378	16.70402656432285	-4.498223872581603	-7.712846794951011
 293	1	3	-0.0655757797683	16.075295794621287	-2.365030752932303	-6.9099842017811826
 294	1	3	-0.0261091222654	17.254197992293108	-1.7839208373311015	-7.474509926894323
 295	1	3	-0.0721273413188	18.135432121702827	-2.6594660051186496	-8.199971599436264
 296	1	3	-0.075591499516	17.858577703168983	-4.03754648684643	-8.321621493884283
 297	1	4	-0.0574372549304	16.54117902127103	-5.715454088972524	-5.078411588302938
 298	1	3	-0.0266927623047	17.586817244400883	-0.32226581894279516	-7.258552661798768
 299	1	3	-0.072544623331	18.82723031094569	0.22551933381827194	-7.670130869141472
 300	1	3	-0.0801360777024	19.157395956266488	1.558652344686858	-7.405407084825896
 301	1	3	-0.0686276200871	18.26409663104215	2.389366676099148	-6.726582169888336
 302	1	3	-0.0801360777024	17.02596057897394	1.8792939316420663	-6.331187579724345
 303	1	3	-0.072544623331	16.69085837045909	0.5477841135758448	-6.590430890615346
 304	1	4	-0.0747602256148	20.27428681295901	4.147848436505902	-5.274025919396866
 305	1	4	-0.0747602256148	19.096094049483785	5.065456704959112	-7.923296711098027
 306	1	4	-0.0747602256148	17.38120694994798	5.030225288849304	-5.413083125929508
 307	1	2	0.0411173219023	14.66989827205055	-4.58315056928669	-4.474489783013608
 308	1	2	0.0493872767323	13.91860572127767	-4.6757129665483	-7.092901629107793
 309	1	2	0.0493864465891	15.618031018675802	-6.271475003678153	-8.380617055519407
 310	1	2	0.0411173152841	17.467719370096496	-7.156420142738033	-6.565102364454397
 311	1	2	0.0861045002907	15.345605422405889	-1.8256787284685192	-6.331376334220628
 312	1	2	0.0851597206542	19.045704128019214	-2.3170112001980723	-8.660565912366364
 313	1	2	0.0846713007392	18.527364139382644	-4.710018684081408	-8.842463626091916
 314	1	2	0.034011099193	16.774015507501115	-6.236677388618863	-4.121217285882675
 315	1	2	0.034011099193	17.25033453053921	-4.86434994321392	-5.174026528281495
 316	1	2	0.0851357626922	19.577270219447186	-0.3556754295644007	-8.177982877773545
 317	1	2	0.0840090236298	20.122760980210593	1.9361521932231929	-7.720016691958985
 318	1	2	0.0840090236298	16.314358685203423	2.502042257923825	-5.806121320195624
 319	1	2	0.0851357626922	15.7240443553167	0.22759541095674063	-6.242703720495809
 320	1	2	0.0246564083843	21.10598921597035	3.648138133134185	-5.811282855628779
 321	1	2	0.0246564083843	20.06855419554341	3.6085290594111212	-4.326595494710482
 322	1	2	0.0246564083843	20.560069125125484	5.195421475971583	-5.045806689187348
 323	1	2	0.0246564083843	19.925265757672825	4.565796034527078	-8.464858658397025
 324	1	2	0.0246564083843	19.38928936587621	6.107646833242783	-7.680726117345184
 325	1	2	0.0246564083843	18.18735265891207	5.073984556153307	-8.558639933943605
 326	1	2	0.0246564083843	17.177505815792692	4.500973538065588	-4.459367323273279
 327	1	2	0.0246564083843	16.460779515861155	5.052738813472085	-6.031495391161531
 328	1	2	0.0246564083843	17.703523794076556	6.068546730008602	-5.193448527516888
 329	1	2	0.0333913854612	14.961120753848366	-8.171470915125427	-6.7404593617448185
 330	1	2	0.0333913854865	13.36558232685876	-6.698094631402958	-5.561552094584375
 331	1	1	0.0647878772074	6.2368494449145135	-15.07700792974434	-3.644923838031488
 332	1	4	-0.0461252212321	14.67729043914846	-9.465937566205081	-4.83933080312606
 333	1	4	-0.0171871909276	14.87492743361809	-10.606490537406554	-3.8128651250342402
 334	1	4	-0.0172184501778	15.930030013128565	-11.567704893804855	-4.575551671240573
 335	1	4	-0.0461257660615	16.134314594869856	-10.804658527655953	-5.910053174712843
 336	1	4	-0.0610547704878	16.971034047209606	-9.551991990647211	-5.599587145758317
 337	1	4	-0.0610547661056	15.971122480123123	-8.633722381254882	-4.857668624306594
 338	1	3	-0.0460532386513	13.96292760104153	-11.775090445626311	-3.9469210457878505
 339	1	3	-0.0468938850378	14.80909233415943	-12.546359736451056	-4.5470169760008545
 340	1	3	-0.0655757797683	12.649320428927933	-12.134063561049993	-3.67764893476494
 341	1	3	-0.0261091222654	12.212389915738155	-13.430155261884426	-4.096488342738726
 342	1	3	-0.0721273413188	13.183653292337173	-14.275095548754384	-4.738493743729693
 343	1	3	-0.075591499516	14.501961244656675	-13.828373639949653	-4.968833838035954
 344	1	4	-0.0574372549304	14.773917556427568	-10.157979113037168	-6.203162595417389
 345	1	3	-0.0266927623047	10.771033057728992	-13.862978503390176	-3.926597349797914
 346	1	3	-0.072544623331	10.288927786826232	-15.073730195809098	-4.483144398188678
 347	1	3	-0.0801360777024	8.941214535858984	-15.434357319708047	-4.383401074223287
 348	1	3	-0.0686276200871	8.031759098375026	-14.604827926409932	-3.724883767779996
 349	1	3	-0.0801360777024	8.48698168707956	-13.417608603171793	-3.14801754129147
 350	1	3	-0.072544623331	9.831562009141376	-13.050315387394662	-3.2460911420627028
 351	1	4	-0.0747602256148	5.55661706992141	-15.219837168948924	-5.379718472689861
 352	1	4	-0.0747602256148	6.05173754064449	-16.720164931996294	-2.781132092963337
 353	1	4	-0.0747602256148	5.23406266656864	-13.792376623128114	-2.729029513758109
 354	1	2	0.0411173219023	13.764568014897485	-8.86758558813408	-4.633250972458566
 355	1	2	0.0493872767323	15.086324120160553	-10.335659899605329	-2.7552713388634578
 356	1	2	0.0493864465891	16.828597118734713	-11.906901821575865	-4.015587751944607
 357	1	2	0.0411173152841	16.572210267266495	-11.446864910838867	-6.703188971090366
 358	1	2	0.0861045002907	12.019941665088352	-11.401285448084819	-3.2032500321661312
 359	1	2	0.0851597206542	12.951586029093423	-15.265873127431265	-5.088525335049293
 360	1	2	0.0846713007392	15.233316828891486	-14.445320830035005	-5.474072251118674