Random packing of 100 x PIM-1_mon.lmps

3500 atoms
4190 bonds
7170 angles
11125 dihedrals
0 impropers

11 atom types
14 bond types
25 angle types
38 dihedral types

 12.883700  57.116200 xlo xhi 
 12.883700  57.116200 ylo yhi 
 12.883700  57.116200 zlo zhi 

Masses

  1         15.999400    # OA0
  2         12.011000    # CS0
  3         13.018940    # CA1
  4         12.011000    # CA0
  5         12.011000    # CH0
  6         14.026880    # CH2
  7         15.034820    # CH3
  8         12.011000    # LCS0
  9         12.011000    # CL0
  10        14.006740    # NL0
  11        15.999400    # LOA0

Pair Coeffs

  1          0.139104    2.599999    # OA0
  2          0.059616    3.700000    # CS0
  3          0.100354    3.695002    # CA1
  4          0.041731    3.879998    # CA0
  5          0.000994    6.400003    # CH0
  6          0.091411    3.950004    # CH2
  7          0.194746    3.749998    # CH3
  8          0.059616    3.700000    # LCS0
  9          0.119232    3.550000    # CL0
  10         0.119232    2.949997    # NL0
  11         0.139104    2.599999    # LOA0

Bond Coeffs

  1        372.400000    1.373000    # CS0,OA0
  2        478.400000    1.387000    # CS0,CS0
  3        478.400000    1.387000    # CA0,CA1
  4        478.400000    1.387000    # CA0,CA0
  5        478.400000    1.387000    # CS0,CA1
  6        303.100000    1.535000    # CH2,CH0
  7        323.500000    1.513000    # CA0,CH0
  8        303.100000    1.535000    # CH0,CH3
  9        478.400000    1.387000    # LCS0,LCS0
  10       478.400000    1.387000    # CS0,CA0
  11       478.400000    1.387000    # LCS0,CA0
  12       404.100000    1.440000    # CA0,CL0
  13      1014.500000    1.138000    # CL0,NL0
  14       372.400000    1.373000    # CS0,LOA0

Angle Coeffs

  1         63.310000  119.950000    # CS0,OA0,CS0
  2         69.790000  119.200000    # OA0,CS0,CS0
  3         69.790000  119.200000    # OA0,CS0,CA1
  4         67.180000  119.970000    # CS0,CS0,CA1
  5         67.180000  119.970000    # CA0,CA1,CS0
  6         67.180000  119.970000    # CA1,CA0,CA0
  7         63.840000  120.630000    # CA1,CA0,CH0
  8         63.840000  120.630000    # CA0,CA0,CH0
  9         63.250000  112.090000    # CH2,CH0,CA0
  10        63.210000  110.630000    # CH2,CH0,CH3
  11        63.250000  112.090000    # CA0,CH0,CH3
  12        63.210000  110.630000    # CH3,CH0,CH3
  13        63.210000  110.630000    # CH0,CH2,CH0
  14        63.210000  110.630000    # CH2,CH0,CH2
  15        63.660000  112.260000    # CA0,CH0,CA0
  16        67.180000  119.970000    # LCS0,LCS0,CA0
  17        67.180000  119.970000    # CS0,CA0,LCS0
  18        65.860000  120.000000    # CS0,CA0,CL0
  19        65.860000  120.000000    # LCS0,CA0,CL0
  20        67.180000  119.970000    # CA0,CS0,CS0
  21        69.790000  119.200000    # CA0,CS0,OA0
  22        63.140000  180.000000    # CA0,CL0,NL0
  23        69.790000  119.200000    # LOA0,CS0,CS0
  24        69.790000  119.200000    # LOA0,CS0,CA1
  25        67.180000  119.970000    # CS0,CA0,CS0

Dihedral Coeffs

  1          0.900000   -1    2    # CS0,CS0,OA0,CS0
  2          0.900000   -1    2    # CA1,CS0,OA0,CS0
  3          3.625000   -1    2    # OA0,CS0,CS0,OA0
  4          3.625000   -1    2    # OA0,CS0,CS0,CA1
  5          3.625000   -1    2    # CA1,CS0,CS0,CA1
  6          3.625000   -1    2    # CA0,CA0,CA1,CS0
  7          3.625000   -1    2    # CH0,CA0,CA1,CS0
  8          3.625000   -1    2    # CA1,CA0,CA0,CA1
  9          3.625000   -1    2    # CA1,CA0,CA0,CH0
  10         3.625000   -1    2    # CH0,CA0,CA0,CH0
  11         3.625000   -1    2    # CS0,CS0,CA1,CA0
  12         3.625000   -1    2    # OA0,CS0,CA1,CA0
  13         0.155550    1    3    # CH0,CH2,CH0,CA0
  14         0.155550    1    3    # CH0,CH2,CH0,CH3
  15         0.000000    1    2    # CA0,CA0,CH0,CH2
  16         0.000000    1    2    # CA0,CA0,CH0,CH3
  17         0.000000    1    2    # CA1,CA0,CH0,CH2
  18         0.000000    1    2    # CA1,CA0,CH0,CH3
  19         0.155550    1    3    # CH0,CH2,CH0,CH2
  20         0.000000    1    2    # CA0,CA0,CH0,CA0
  21         0.000000    1    2    # CA1,CA0,CH0,CA0
  22         3.625000   -1    2    # CA0,LCS0,LCS0,CA0
  23         3.625000   -1    2    # CS0,CS0,CA0,LCS0
  24         3.625000   -1    2    # CS0,CS0,CA0,CL0
  25         3.625000   -1    2    # OA0,CS0,CA0,LCS0
  26         3.625000   -1    2    # OA0,CS0,CA0,CL0
  27         3.625000   -1    2    # CA0,CS0,CS0,CA0
  28         3.625000   -1    2    # CA0,CS0,CS0,OA0
  29         3.625000   -1    2    # LCS0,LCS0,CA0,CS0
  30         3.625000   -1    2    # LCS0,LCS0,CA0,CL0
  31         0.000000   -1    2    # CS0,CA0,CL0,NL0
  32         0.000000   -1    2    # LCS0,CA0,CL0,NL0
  33         0.900000   -1    2    # CA0,CS0,OA0,CS0
  34         3.625000   -1    2    # LOA0,CS0,CS0,LOA0
  35         3.625000   -1    2    # LOA0,CS0,CS0,CA1
  36         3.625000   -1    2    # LOA0,CS0,CA1,CA0
  37         3.625000   -1    2    # CS0,CS0,CA0,CS0
  38         3.625000   -1    2    # OA0,CS0,CA0,CS0

Atoms

  1       1    4      0.038400     50.810700     18.186900     32.952700
  2       1    4      0.038400     49.834500     18.883500     33.721900
  3       1    5      0.097900     48.365100     18.427500     33.438000
  4       1    6     -0.016500     48.566300     17.219400     32.413000
  5       1    7      0.000000     47.476800     19.526200     32.826600
  6       1    5      0.097900     50.130200     17.048600     32.147600
  7       1    6     -0.016500     50.638200     15.593100     32.629700
  8       1    5      0.097900     51.038400     14.660400     31.464100
  9       1    4      0.038400     50.889600     15.669100     30.309200
  10      1    4      0.038400     50.500700     16.950100     30.673100
  11      1    3     -0.125000     50.649000     18.044200     29.820100
  12      1    2      0.177800     50.934400     17.801600     28.457700
  13      1    2      0.177800     50.970600     16.432600     28.054100
  14      1    3     -0.125000     51.117100     15.375800     28.968500
  15      1    1     -0.219100     51.225400     16.122500     26.755100
  16      1    1     -0.219100     51.318200     18.788700     27.603900
  17      1    7      0.000000     52.526600     14.222700     31.684800
  18      1    7      0.000000     50.032200     13.510400     31.427600
  19      1    2      0.172300     51.650300     18.483700     26.277800
  20      1    2      0.172300     51.593300     17.119800     25.845400
  21      1    4     -0.123000     51.932800     16.811500     24.506700
  22      1    9      0.313700     51.943000     15.418300     24.112400
  23      1    10    -0.410000     51.935200     14.319800     23.889100
  24      1    1     -0.219100     51.902400     21.517600     35.083700
  25      1    2      0.177800     52.526800     19.664800     33.759900
  26      1    1     -0.219100     53.780300     20.176100     33.609000
  27      1    3     -0.125000     52.160100     18.548400     33.023500
  28      1    2      0.172300     52.239000     17.862400     23.570000
  29      1    2      0.172300     52.456800     19.166700     24.118200
  30      1    4     -0.123000     52.038400     19.484800     25.429000
  31      1    9      0.313700     52.202400     20.815600     25.969400
  32      1    10    -0.410000     52.182800     21.946900     26.200300
  33      1    2      0.177800     51.525800     20.343200     34.584000
  34      1    3     -0.125000     50.171400     19.933200     34.574900
  35      1    7      0.000000     47.605100     17.862000     34.684600
  36      1    4      0.038400      9.641050     36.096900     36.870200
  37      1    4      0.038400      8.574250     35.210800     36.645000
  38      1    5      0.097900      8.894720     33.760000     37.066100
  39      1    6     -0.016500     10.321900     33.908700     37.670700
  40      1    7      0.000000      8.798450     32.722800     35.962400
  41      1    5      0.097900     10.923700     35.304500     37.335700
  42      1    6     -0.016500     11.620600     35.916900     38.621000
  43      1    5      0.097900     13.003800     36.447800     38.261300
  44      1    4      0.038400     13.187400     36.100200     36.773200
  45      1    4      0.038400     12.067100     35.425400     36.296300
  46      1    3     -0.125000     11.936800     35.003000     35.001200
  47      1    2      0.177800     13.146100     35.093700     34.233900
  48      1    2      0.177800     14.304500     35.776600     34.706400
  49      1    3     -0.125000     14.359600     36.292400     35.993500
  50      1    1     -0.219100     15.405800     35.879800     33.782000
  51      1    1     -0.219100     13.177000     34.643400     32.907600
  52      1    7      0.000000     12.975700     37.968800     38.420800
  53      1    7      0.000000     14.002800     35.735700     39.254100
  54      1    2      0.172300     14.195900     34.759200     31.965300
  55      1    2      0.172300     15.334300     35.406000     32.461000
  56      1    4     -0.123000     16.432100     35.484100     31.549600
  57      1    9      0.313700     17.652900     36.091400     31.819700
  58      1    10    -0.410000     18.657600     36.594800     31.983300
  59      1    1     -0.219100      6.293660     37.623400     34.913100
  60      1    2      0.177800      8.449200     37.905500     35.909900
  61      1    1     -0.219100      8.457490     39.198400     35.460100
  62      1    3     -0.125000      9.586290     37.451100     36.538200
  63      1    2      0.172300     16.287300     35.127400     30.205200
  64      1    2      0.172300     15.138800     34.482700     29.735700
  65      1    4     -0.123000     14.062400     34.304200     30.658000
  66      1    9      0.313700     12.905200     33.540700     30.334300
  67      1    10    -0.410000     11.996900     32.941100     30.014900
  68      1    2      0.177800      7.331940     37.112100     35.672100
  69      1    3     -0.125000      7.399290     35.754400     36.099300
  70      1    7      0.000000      7.831340     33.326700     38.161300
  71      3    4      0.038400     34.747100      8.104560     17.643300
  72      3    4      0.038400     34.400700      7.252650     18.686700
  73      3    5      0.097900     34.918700      7.694910     20.000300
  74      3    6     -0.016500     35.792800      8.959220     19.664600
  75      3    7      0.000000     35.694500      6.555540     20.750800
  76      3    5      0.097900     35.507800      9.296000     18.111000
  77      3    6     -0.016500     34.710900     10.651500     17.946900
  78      3    5      0.097900     35.634300     11.805600     17.544400
  79      3    4      0.038400     36.956300     11.072500     17.300800
  80      3    4      0.038400     36.787600      9.689990     17.314800
  81      3    3     -0.125000     37.829900      8.864360     16.963900
  82      3    2      0.177800     39.095500      9.426320     16.867400
  83      3    2      0.177800     39.327300     10.779200     17.108900
  84      3    3     -0.125000     38.249100     11.627000     17.241500
  85      3    1     -0.219100     40.588500     11.242600     17.060800
  86      3    1     -0.219100     40.228500      8.522540     16.691100
  87      3    7      0.000000     35.103200     12.583500     16.329100
  88      3    7      0.000000     35.669400     12.797100     18.664400
  89      3    2      0.172300     41.544100      9.090390     16.609000
  90      3    2      0.172300     41.703800     10.425700     17.167000
  91      3    4     -0.123000     42.967300     11.020100     17.450100
  92      3    9      0.313700     43.012300     12.390400     17.992200
  93      3    10    -0.410000     43.185200     13.433300     18.459500
  94      3    1     -0.219100     32.462400      4.670190     16.901100
  95      3    2      0.177800     33.247000      6.807050     16.159600
  96      3    1     -0.219100     32.767100      6.482980     14.906500
  97      3    3     -0.125000     34.193600      7.883070     16.360800
  98      3    2      0.172300     44.099600     10.287400     17.324600
  99      3    2      0.172300     43.986000      8.940790     16.761400
  100     3    4     -0.123000     42.761100      8.367700     16.418900
  101     3    9      0.313700     42.751900      7.020530     16.052900
  102     3    10    -0.410000     42.749900      5.938420     15.695800
  103     3    2      0.177800     33.165500      5.802630     17.187900
  104     3    3     -0.125000     33.658200      6.054860     18.493600
  105     3    7      0.000000     33.745800      8.147060     20.947200
  106     1    4      0.038400     48.338000     -4.215390     26.850600
  107     1    4      0.038400     48.551200     -4.212380     28.221400
  108     1    5      0.097900     47.508600     -5.003260     28.963600
  109     1    6     -0.016500     46.673800     -5.695740     27.845700
  110     1    7      0.000000     46.402900     -4.235760     29.691100
  111     1    5      0.097900     47.212500     -5.134610     26.421500
  112     1    6     -0.016500     47.589600     -6.261180     25.344400
  113     1    5      0.097900     46.725100     -6.074760     24.073000
  114     1    4      0.038400     45.721600     -4.951530     24.415000
  115     1    4      0.038400     45.986300     -4.471490     25.717300
  116     1    3     -0.125000     45.266700     -3.342750     26.178400
  117     1    2      0.177800     44.164700     -2.840070     25.448000
  118     1    2      0.177800     43.975800     -3.354950     24.120400
  119     1    3     -0.125000     44.645400     -4.472220     23.630300
  120     1    1     -0.219100     43.046200     -2.625060     23.333000
  121     1    1     -0.219100     43.469500     -1.744780     25.906200
  122     1    7      0.000000     47.590800     -5.808500     22.822400
  123     1    7      0.000000     45.926500     -7.373740     23.727200
  124     1    2      0.172300     42.809300     -0.893816     24.973200
  125     1    2      0.172300     42.524700     -1.361320     23.730500
  126     1    4     -0.123000     41.884500     -0.557009     22.772700
  127     1    9      0.313700     41.748300     -0.996523     21.423000
  128     1    10    -0.410000     41.586100     -1.385420     20.403500
  129     1    1     -0.219100     51.113500     -1.571090     28.390800
  130     1    2      0.177800     50.290200     -2.840540     26.518500
  131     1    1     -0.219100     51.314700     -2.336160     25.666400
  132     1    3     -0.125000     49.270900     -3.683740     25.943100
  133     1    2      0.172300     41.641700      0.780352     23.107800
  134     1    2      0.172300     41.944200      1.324190     24.364100
  135     1    4     -0.123000     42.573900      0.457739     25.287400
  136     1    9      0.313700     43.008400      1.010400     26.577900
  137     1    10    -0.410000     43.408000      1.443170     27.544700
  138     1    2      0.177800     50.335500     -2.595320     27.900500
  139     1    3     -0.125000     49.482200     -3.306690     28.769100
  140     1    7      0.000000     48.095400     -6.077070     29.859300
  141     3    4      0.038400      4.717460     45.027200     52.406500
  142     3    4      0.038400      4.229340     44.257800     53.443300
  143     3    5      0.097900      3.291760     45.014100     54.345700
  144     3    6     -0.016500      3.219340     46.395100     53.678300
  145     3    7      0.000000      3.850410     45.176300     55.842900
  146     3    5      0.097900      4.211870     46.456600     52.438800
  147     3    6     -0.016500      3.564590     46.837400     51.091700
  148     3    5      0.097900      4.264130     47.980500     50.355400
  149     3    4      0.038400      5.450800     48.219800     51.313000
  150     3    4      0.038400      5.372770     47.484500     52.481300
  151     3    3     -0.125000      6.463440     47.485300     53.396700
  152     3    2      0.177800      7.602400     48.247900     53.138300
  153     3    2      0.177800      7.679800     48.974200     51.905500
  154     3    3     -0.125000      6.610590     48.989200     50.999300
  155     3    1     -0.219100      8.892860     49.637100     51.652400
  156     3    1     -0.219100      8.667030     48.299400     54.041000
  157     3    7      0.000000      4.593830     47.613500     48.880800
  158     3    7      0.000000      3.326190     49.219600     50.238800
  159     3    2      0.172300      9.842000     48.896000     53.668900
  160     3    2      0.172300      9.961470     49.573600     52.474200
  161     3    4     -0.123000     11.257400     50.031800     52.061100
  162     3    9      0.313700     11.431300     50.733400     50.789400
  163     3    10    -0.410000     11.529000     51.352200     49.838800
  164     3    1     -0.219100      6.694390     41.368700     53.221800
  165     3    2      0.177800      6.346800     43.301100     51.830500
  166     3    1     -0.219100      7.428630     42.890900     51.068600
  167     3    3     -0.125000      5.697990     44.559400     51.530800
  168     3    2      0.172300     12.322800     50.014100     52.935200
  169     3    2      0.172300     12.200200     49.373700     54.178900
  170     3    4     -0.123000     10.941500     48.779500     54.529700
  171     3    9      0.313700     10.779500     48.146100     55.860800
  172     3    10    -0.410000     10.580500     47.673100     56.901400
  173     3    2      0.177800      5.954730     42.558800     52.971900
  174     3    3     -0.125000      4.802630     43.005900     53.691400
  175     3    7      0.000000      1.894400     44.384000     54.446400
  176     5    4      0.038400     21.831200     45.997500      1.145190
  177     5    4      0.038400     22.640200     45.314500      2.113130
  178     5    5      0.097900     21.788200     44.344800      2.960930
  179     5    6     -0.016500     20.490600     44.226700      2.012590
  180     5    7      0.000000     21.394800     45.058500      4.285410
  181     5    5      0.097900     20.429400     45.397400      0.916910
  182     5    6     -0.016500     20.145600     44.961300     -0.507673
  183     5    5      0.097900     19.038500     45.855400     -1.192070
  184     5    4      0.038400     18.667200     46.814800     -0.025606
  185     5    4      0.038400     19.391800     46.467200      1.137400
  186     5    3     -0.125000     19.087800     47.092300      2.355140
  187     5    2      0.177800     17.988300     48.015300      2.341780
  188     5    2      0.177800     17.354000     48.421900      1.155350
  189     5    3     -0.125000     17.667300     47.798100     -0.066172
  190     5    1     -0.219100     16.284100     49.317900      1.184060
  191     5    1     -0.219100     17.576700     48.562200      3.561460
  192     5    7      0.000000     19.721500     46.544600     -2.413730
  193     5    7      0.000000     17.870700     44.987800     -1.775770
  194     5    2      0.172300     16.479400     49.447900      3.587400
  195     5    2      0.172300     15.846400     49.835900      2.397810
  196     5    4     -0.123000     14.792900     50.715500      2.394680
  197     5    9      0.313700     14.091200     51.111100      1.248370
  198     5    10    -0.410000     13.615000     51.365200      0.265604
  199     5    1     -0.219100     25.672800     47.374600      2.124410
  200     5    2      0.177800     23.764900     47.457000      0.699633
  201     5    1     -0.219100     24.300300     48.560000      0.125063
  202     5    3     -0.125000     22.442800     47.052400      0.341909
  203     5    8      0.172300     14.361800     51.184000      3.654620
  204     5    8      0.172300     14.990300     50.797500      4.866010
  205     5    4     -0.123000     16.109100     49.958500      4.807760
  206     5    9      0.313700     16.901400     49.710900      6.022230
  207     5    10    -0.410000     17.518300     49.551800      6.976610
  208     5    2      0.177800     24.439600     46.847700      1.739790
  209     5    3     -0.125000     23.911100     45.794700      2.494430
  210     5    7      0.000000     22.368900     42.947300      3.315280
  211     1    4      0.038400     31.816700     18.774900     20.390200
  212     1    4      0.038400     32.701400     19.406100     21.295700
  213     1    5      0.097900     34.128500     19.379500     20.821400
  214     1    6     -0.016500     33.928900     18.693100     19.366400
  215     1    7      0.000000     35.041300     18.521700     21.777000
  216     1    5      0.097900     32.474700     18.263500     19.101800
  217     1    6     -0.016500     31.861400     18.832600     17.746900
  218     1    5      0.097900     31.090000     17.663900     17.029900
  219     1    4      0.038400     31.315600     16.432500     17.914100
  220     1    4      0.038400     32.169900     16.757700     18.951100
  221     1    3     -0.125000     32.474500     15.763400     19.940700
  222     1    2      0.177800     31.884300     14.458700     19.817000
  223     1    2      0.177800     31.032300     14.193000     18.755000
  224     1    3     -0.125000     30.668700     15.148700     17.773000
  225     1    1     -0.219100     30.320500     12.929100     18.733200
  226     1    1     -0.219100     31.890300     13.580000     20.921300
  227     1    7      0.000000     29.579000     18.074900     16.852800
  228     1    7      0.000000     31.690500     17.481600     15.665800
  229     1    2      0.172300     31.108700     12.445700     20.960200
  230     1    2      0.172300     30.222700     12.182700     19.898400
  231     1    4     -0.123000     29.285900     11.164100     20.041100
  232     1    9      0.313700     28.430800     10.845700     18.972800
  233     1    10    -0.410000     27.732100     10.571700     18.111400
  234     1    1     -0.219100     30.552400     20.005900     24.162500
  235     1    2      0.177800     29.980700     18.992400     21.996300
  236     1    1     -0.219100     28.717200     18.676800     22.510900
  237     1    3     -0.125000     30.422000     18.583800     20.706800
  238     1    2      0.172300     29.452800     10.269000     21.105300
  239     1    2      0.172300     30.481200     10.409800     22.078200
  240     1    4     -0.123000     31.302500     11.487700     22.028800
  241     1    9      0.313700     32.416500     11.590200     22.940000
  242     1    10    -0.410000     33.397900     11.648200     23.531600
  243     1    2      0.177800     30.882900     19.705300     22.900900
  244     1    3     -0.125000     32.204100     19.904900     22.517200
  245     1    7      0.000000     34.762800     20.723900     20.480400
  246     2    4      0.038400     -5.932080     49.332300     52.211600
  247     2    4      0.038400     -5.253100     50.210000     53.104400
  248     2    5      0.097900     -4.049850     50.885900     52.482700
  249     2    6     -0.016500     -4.059840     50.232100     51.070500
  250     2    7      0.000000     -2.676730     50.737500     53.221500
  251     2    5      0.097900     -5.155540     49.148600     50.889600
  252     2    6     -0.016500     -5.916290     49.319100     49.481100
  253     2    5      0.097900     -5.625280     48.014400     48.646000
  254     2    4      0.038400     -4.731750     47.183500     49.570800
  255     2    4      0.038400     -4.641810     47.718900     50.828500
  256     2    3     -0.125000     -4.056130     46.949200     51.890100
  257     2    2      0.177800     -3.360470     45.792800     51.604000
  258     2    2      0.177800     -3.260970     45.333800     50.260800
  259     2    3     -0.125000     -3.928550     46.038900     49.264400
  260     2    1     -0.219100     -2.274850     44.482600     49.957600
  261     2    1     -0.219100     -2.733240     45.113000     52.530400
  262     2    7      0.000000     -6.933540     47.254700     48.213100
  263     2    7      0.000000     -4.899950     48.500000     47.336400
  264     2    2      0.172300     -1.893950     44.004400     52.274400
  265     2    2      0.172300     -1.505160     43.822500     50.946500
  266     2    4     -0.123000     -0.514540     42.879600     50.644800
  267     2    9      0.313700     -0.176325     42.491900     49.295700
  268     2    10    -0.410000      0.075414     42.191500     48.226100
  269     2    1     -0.219100     -6.822960     49.030600     56.126400
  270     2    2      0.177800     -7.592110     48.782000     53.905000
  271     2    1     -0.219100     -8.756380     48.160700     54.390300
  272     2    3     -0.125000     -7.126420     48.660000     52.576900
  273     2    2      0.172300      0.031885     42.146300     51.709700
  274     2    2      0.172300     -0.384138     42.308700     53.027900
  275     2    4     -0.123000     -1.290350     43.308200     53.333100
  276     2    9      0.313700     -1.740750     43.485000     54.694300
  277     2    10    -0.410000     -2.019340     43.600000     55.798400
  278     2    2      0.177800     -6.741790     49.422900     54.835700
  279     2    3     -0.125000     -5.631860     50.178000     54.470200
  280     2    7      0.000000     -4.290250     52.356600     52.348400
  281     1    4      0.038400    -13.799900     42.156800     22.807600
  282     1    4      0.038400    -14.489000     43.202600     22.185000
  283     1    5      0.097900    -13.999700     43.458400     20.687100
  284     1    6     -0.016500    -12.893500     42.415800     20.553400
  285     1    7      0.000000    -13.447000     44.858800     20.523800
  286     1    5      0.097900    -12.815400     41.494600     21.864500
  287     1    6     -0.016500    -13.299500     40.038400     21.510700
  288     1    5      0.097900    -12.187700     39.050100     21.711200
  289     1    4      0.038400    -11.113200     39.913500     22.396000
  290     1    4      0.038400    -11.461700     41.263500     22.481300
  291     1    3     -0.125000    -10.617400     42.276100     22.982800
  292     1    2      0.177800     -9.396890     41.822900     23.552800
  293     1    2      0.177800     -9.207340     40.427400     23.728200
  294     1    3     -0.125000     -9.999140     39.465900     23.091200
  295     1    1     -0.219100     -7.978750     40.139000     24.306000
  296     1    1     -0.219100     -8.345320     42.703000     23.823100
  297     1    7      0.000000    -12.765200     37.902400     22.645700
  298     1    7      0.000000    -11.685100     38.420600     20.408400
  299     1    2      0.172300     -7.228890     42.340700     24.507000
  300     1    2      0.172300     -7.054440     41.010900     24.789900
  301     1    4     -0.123000     -6.015330     40.522800     25.645500
  302     1    9      0.313700     -5.869270     39.133600     25.971600
  303     1    10    -0.410000     -5.576430     38.093200     26.261800
  304     1    1     -0.219100    -16.652500     44.241300     24.970500
  305     1    2      0.177800    -14.962600     42.583000     24.857700
  306     1    1     -0.219100    -15.200400     42.370500     26.183600
  307     1    3     -0.125000    -13.981300     41.836700     24.157600
  308     1    2      0.172300     -5.237260     41.503000     26.286200
  309     1    2      0.172300     -5.473070     42.885900     26.087600
  310     1    4     -0.123000     -6.381920     43.272600     25.095800
  311     1    9      0.313700     -6.532820     44.655900     24.808300
  312     1    10    -0.410000     -6.736650     45.765200     24.538600
  313     1    2      0.177800    -15.703500     43.598000     24.202900
  314     1    3     -0.125000    -15.528600     43.840500     22.856300
  315     1    7      0.000000    -15.059700     43.242100     19.611500
  316     1    4      0.038400     30.167500     47.529400     37.664500
  317     1    4      0.038400     30.861300     48.713900     37.416600
  318     1    5      0.097900     30.189700     49.416300     36.248700
  319     1    6     -0.016500     29.062400     48.442700     35.739800
  320     1    7      0.000000     31.194000     49.700100     35.063400
  321     1    5      0.097900     28.913500     47.271700     36.870700
  322     1    6     -0.016500     27.498700     47.399100     37.583900
  323     1    5      0.097900     26.480300     46.342000     37.035100
  324     1    4      0.038400     27.394100     45.496400     36.121600
  325     1    4      0.038400     28.727800     45.938900     36.180700
  326     1    3     -0.125000     29.809300     45.185400     35.552100
  327     1    2      0.177800     29.450200     44.064500     34.809700
  328     1    2      0.177800     28.102100     43.655500     34.686900
  329     1    3     -0.125000     27.083700     44.323200     35.359200
  330     1    1     -0.219100     27.809300     42.355000     34.142700
  331     1    1     -0.219100     30.406200     43.257500     34.207300
  332     1    7      0.000000     25.944800     45.576000     38.256800
  333     1    7      0.000000     25.276900     47.010400     36.348900
  334     1    2      0.172300     30.143400     42.010100     33.676200
  335     1    2      0.172300     28.826000     41.538200     33.623400
  336     1    4     -0.123000     28.536600     40.309000     32.994000
  337     1    9      0.313700     27.229700     39.841500     32.978500
  338     1    10    -0.410000     26.137100     39.498300     32.928400
  339     1    1     -0.219100     33.581400     48.438900     39.886300
  340     1    2      0.177800     31.605400     47.090600     39.462100