LAMMPS data file for PIM-1 monomer

35 atoms
40 bonds
66 angles
97 dihedrals

11 atom types
14 bond types
25 angle types
38 dihedral types

 -0.827128  11.147301 xlo xhi 
 -2.118655   7.946945 ylo yhi 
 -2.560712   3.640786 zlo zhi 

Masses

  1         15.999400    # OA0
  2         12.011000    # CS0
  3         13.018940    # CA1
  4         12.011000    # CA0
  5         12.011000    # CH0
  6         14.026880    # CH2
  7         15.034820    # CH3
  8         12.011000    # LCS0
  9         12.011000    # CL0
  10        14.006740    # NL0
  11        15.999400    # LOA0

Pair Coeffs

  1          0.139104    2.599999    # OA0
  2          0.059616    3.700000    # CS0
  3          0.100354    3.695002    # CA1
  4          0.041731    3.879998    # CA0
  5          0.000994    6.400003    # CH0
  6          0.091411    3.950004    # CH2
  7          0.194746    3.749998    # CH3
  8          0.059616    3.700000    # LCS0
  9          0.119232    3.550000    # CL0
  10         0.119232    2.949997    # NL0
  11         0.139104    2.599999    # LOA0

Bond Coeffs

  1        372.400000    1.373000    # CS0,OA0
  2        478.400000    1.387000    # CS0,CS0
  3        478.400000    1.387000    # CA0,CA1
  4        478.400000    1.387000    # CA0,CA0
  5        478.400000    1.387000    # CS0,CA1
  6        303.100000    1.535000    # CH2,CH0
  7        323.500000    1.513000    # CA0,CH0
  8        303.100000    1.535000    # CH0,CH3
  9        478.400000    1.387000    # LCS0,LCS0
  10       478.400000    1.387000    # CS0,CA0
  11       478.400000    1.387000    # LCS0,CA0
  12       404.100000    1.440000    # CA0,CL0
  13      1014.500000    1.138000    # CL0,NL0
  14       372.400000    1.373000    # CS0,LOA0

Angle Coeffs

  1         63.310000  119.950000    # CS0,OA0,CS0
  2         69.790000  119.200000    # OA0,CS0,CS0
  3         69.790000  119.200000    # OA0,CS0,CA1
  4         67.180000  119.970000    # CS0,CS0,CA1
  5         67.180000  119.970000    # CA0,CA1,CS0
  6         67.180000  119.970000    # CA1,CA0,CA0
  7         63.840000  120.630000    # CA1,CA0,CH0
  8         63.840000  120.630000    # CA0,CA0,CH0
  9         63.250000  112.090000    # CH2,CH0,CA0
  10        63.210000  110.630000    # CH2,CH0,CH3
  11        63.250000  112.090000    # CA0,CH0,CH3
  12        63.210000  110.630000    # CH3,CH0,CH3
  13        63.210000  110.630000    # CH0,CH2,CH0
  14        63.210000  110.630000    # CH2,CH0,CH2
  15        63.660000  112.260000    # CA0,CH0,CA0
  16        67.180000  119.970000    # LCS0,LCS0,CA0
  17        67.180000  119.970000    # CS0,CA0,LCS0
  18        65.860000  120.000000    # CS0,CA0,CL0
  19        65.860000  120.000000    # LCS0,CA0,CL0
  20        67.180000  119.970000    # CA0,CS0,CS0
  21        69.790000  119.200000    # CA0,CS0,OA0
  22        63.140000  180.000000    # CA0,CL0,NL0
  23        69.790000  119.200000    # LOA0,CS0,CS0
  24        69.790000  119.200000    # LOA0,CS0,CA1
  25        67.180000  119.970000    # CS0,CA0,CS0

Dihedral Coeffs

  1          0.900000   -1    2    # CS0,CS0,OA0,CS0
  2          0.900000   -1    2    # CA1,CS0,OA0,CS0
  3          3.625000   -1    2    # OA0,CS0,CS0,OA0
  4          3.625000   -1    2    # OA0,CS0,CS0,CA1
  5          3.625000   -1    2    # CA1,CS0,CS0,CA1
  6          3.625000   -1    2    # CA0,CA0,CA1,CS0
  7          3.625000   -1    2    # CH0,CA0,CA1,CS0
  8          3.625000   -1    2    # CA1,CA0,CA0,CA1
  9          3.625000   -1    2    # CA1,CA0,CA0,CH0
  10         3.625000   -1    2    # CH0,CA0,CA0,CH0
  11         3.625000   -1    2    # CS0,CS0,CA1,CA0
  12         3.625000   -1    2    # OA0,CS0,CA1,CA0
  13         0.155550    1    3    # CH0,CH2,CH0,CA0
  14         0.155550    1    3    # CH0,CH2,CH0,CH3
  15         0.000000    1    2    # CA0,CA0,CH0,CH2
  16         0.000000    1    2    # CA0,CA0,CH0,CH3
  17         0.000000    1    2    # CA1,CA0,CH0,CH2
  18         0.000000    1    2    # CA1,CA0,CH0,CH3
  19         0.155550    1    3    # CH0,CH2,CH0,CH2
  20         0.000000    1    2    # CA0,CA0,CH0,CA0
  21         0.000000    1    2    # CA1,CA0,CH0,CA0
  22         3.625000   -1    2    # CA0,LCS0,LCS0,CA0
  23         3.625000   -1    2    # CS0,CS0,CA0,LCS0
  24         3.625000   -1    2    # CS0,CS0,CA0,CL0
  25         3.625000   -1    2    # OA0,CS0,CA0,LCS0
  26         3.625000   -1    2    # OA0,CS0,CA0,CL0
  27         3.625000   -1    2    # CA0,CS0,CS0,CA0
  28         3.625000   -1    2    # CA0,CS0,CS0,OA0
  29         3.625000   -1    2    # LCS0,LCS0,CA0,CS0
  30         3.625000   -1    2    # LCS0,LCS0,CA0,CL0
  31         0.000000   -1    2    # CS0,CA0,CL0,NL0
  32         0.000000   -1    2    # LCS0,CA0,CL0,NL0
  33         0.900000   -1    2    # CA0,CS0,OA0,CS0
  34         3.625000   -1    2    # LOA0,CS0,CS0,LOA0
  35         3.625000   -1    2    # LOA0,CS0,CS0,CA1
  36         3.625000   -1    2    # LOA0,CS0,CA1,CA0
  37         3.625000   -1    2    # CS0,CS0,CA0,CS0
  38         3.625000   -1    2    # OA0,CS0,CA0,CS0

Atoms

  1       1    4      0.038400      1.690993      5.124792      1.105893
  2       1    4      0.038400      0.605978      4.270998      1.437355
  3       1    5      0.097900      0.537610      3.953729      2.943804
  4       1    6     -0.016500      1.803409      4.708997      3.485710
  5       1    7      0.000000      0.647170      2.445142      3.286855
  6       1    5      0.097900      2.633802      5.587520      2.207635
  7       1    6     -0.016500      3.137683      7.074358      1.986604
  8       1    5      0.097900      4.680407      7.124305      1.691120
  9       1    4      0.038400      5.049638      5.628949      1.689346
  10      1    4      0.038400      3.937193      4.789977      1.968529
  11      1    3     -0.125000      4.071304      3.371947      1.945406
  12      1    2      0.177800      5.340973      2.819416      1.647193
  13      1    2      0.177800      6.461821      3.661443      1.387791
  14      1    3     -0.125000      6.331511      5.069213      1.405568
  15      1    1     -0.219100      7.682420      3.073909      1.072408
  16      1    1     -0.219100      5.509794      1.439335      1.565823
  17      1    7      0.000000      4.928931      7.844843      0.336798
  18      1    7      0.000000      5.406237      7.946945      2.791599
  19      1    2      0.172300      6.718773      0.854299      1.188684
  20      1    2      0.172300      7.837028      1.697045      0.936018
  21      1    4     -0.123000      9.076694      1.146281      0.552900
  22      1    9      0.313700     10.229182      1.978511      0.328090
  23      1    10    -0.410000     11.147301      2.627422      0.158876
  24      1    11    -0.219100     -0.827128      3.643656     -1.907599
  25      1    2      0.177800      1.068325      5.006964     -1.250045
  26      1    11    -0.219100      1.318052      5.332320     -2.560712
  27      1    3     -0.125000      1.935991      5.500845     -0.245624
  28      1    8      0.172300      9.184228     -0.250760      0.412479
  29      1    8      0.172300      8.074338     -1.088650      0.659613
  30      1    4     -0.123000      6.838950     -0.544556      1.058599
  31      1    9      0.313700      5.731667     -1.420732      1.317548
  32      1    10    -0.410000      4.858391     -2.118655      1.521823
  33      1    2      0.177800     -0.020869      4.155601     -0.921339
  34      1    3     -0.125000     -0.264150      3.777242      0.421328
  35      1    7      0.000000     -0.741553      4.489910      3.640786

Bonds

  1       4    1       2      
  2       7    1       6      
  3       7    2       3      
  4       6    4       3      
  5       8    3       5      
  6       6    4       6      
  7       6    7       6      
  8       7    10      6      
  9       6    7       8      
  10      7    9       8      
  11      8    8       17     
  12      8    8       18     
  13      4    9       10     
  14      3    9       14     
  15      3    10      11     
  16      5    12      11     
  17      2    12      13     
  18      1    12      16     
  19      5    13      14     
  20      1    13      15     
  21      1    20      15     
  22      1    19      16     
  23      2    19      20     
  24      10   20      21     
  25      12   21      22     
  26      13   22      23     
  27      3    2       34     
  28      8    3       35     
  29      14   33      24     
  30      14   25      26     
  31      5    25      27     
  32      3    1       27     
  33      9    28      29     
  34      11   29      30     
  35      12   30      31     
  36      13   31      32     
  37      11   28      21     
  38      10   19      30     
  39      5    33      34     
  40      2    33      25     

Angles

  1       8    2       1       6      
  2       6    27      1       2      
  3       7    27      1       6      
  4       8    1       2       3      
  5       6    34      2       1      
  6       7    34      2       3      
  7       9    4       3       2      
  8       11   2       3       5      
  9       11   2       3       35     
  10      10   4       3       5      
  11      10   4       3       35     
  12      12   5       3       35     
  13      13   3       4       6      
  14      9    4       6       1      
  15      9    7       6       1      
  16      15   1       6       10     
  17      14   4       6       7      
  18      9    4       6       10     
  19      9    7       6       10     
  20      13   6       7       8      
  21      9    7       8       9      
  22      10   7       8       17     
  23      10   7       8       18     
  24      11   9       8       17     
  25      11   9       8       18     
  26      12   17      8       18     
  27      8    10      9       8      
  28      7    14      9       8      
  29      6    14      9       10     
  30      8    9       10      6      
  31      7    11      10      6      
  32      6    11      10      9      
  33      5    10      11      12     
  34      4    13      12      11     
  35      3    16      12      11     
  36      2    16      12      13     
  37      4    12      13      14     
  38      2    15      13      12     
  39      3    15      13      14     
  40      5    9       14      13     
  41      1    13      15      20     
  42      1    12      16      19     
  43      2    16      19      20     
  44      21   30      19      16     
  45      20   30      19      20     
  46      2    15      20      19     
  47      21   21      20      15     
  48      20   21      20      19     
  49      18   20      21      22     
  50      17   20      21      28     
  51      19   28      21      22     
  52      22   21      22      23     
  53      24   26      25      27     
  54      23   26      25      33     
  55      4    33      25      27     
  56      5    1       27      25     
  57      16   29      28      21     
  58      16   28      29      30     
  59      19   29      30      31     
  60      17   19      30      29     
  61      18   19      30      31     
  62      22   30      31      32     
  63      24   24      33      34     
  64      4    25      33      34     
  65      23   24      33      25     
  66      5    2       34      33     

Dihedrals

  1       10   6       1       2       3      
  2       9    34      2       1       6      
  3       9    27      1       2       3      
  4       8    27      1       2       34     
  5       15   2       1       6       4      
  6       15   2       1       6       7      
  7       20   2       1       6       10     
  8       17   27      1       6       4      
  9       17   27      1       6       7      
  10      21   27      1       6       10     
  11      15   1       2       3       4      
  12      16   1       2       3       5      
  13      16   1       2       3       35     
  14      17   34      2       3       4      
  15      18   34      2       3       5      
  16      18   34      2       3       35     
  17      13   6       4       3       2      
  18      14   6       4       3       5      
  19      14   6       4       3       35     
  20      13   3       4       6       1      
  21      19   3       4       6       7      
  22      13   3       4       6       10     
  23      13   8       7       6       1      
  24      19   8       7       6       4      
  25      13   8       7       6       10     
  26      20   9       10      6       1      
  27      15   9       10      6       4      
  28      15   9       10      6       7      
  29      21   11      10      6       1      
  30      17   11      10      6       4      
  31      17   11      10      6       7      
  32      13   6       7       8       9      
  33      14   6       7       8       17     
  34      14   6       7       8       18     
  35      15   10      9       8       7      
  36      16   10      9       8       17     
  37      16   10      9       8       18     
  38      17   14      9       8       7      
  39      18   14      9       8       17     
  40      18   14      9       8       18     
  41      10   8       9       10      6      
  42      9    11      10      9       8      
  43      9    14      9       10      6      
  44      8    14      9       10      11     
  45      7    8       9       14      13     
  46      6    10      9       14      13     
  47      7    6       10      11      12     
  48      6    9       10      11      12     
  49      11   13      12      11      10     
  50      12   16      12      11      10     
  51      5    11      12      13      14     
  52      4    15      13      12      11     
  53      4    16      12      13      14     
  54      3    16      12      13      15     
  55      2    11      12      16      19     
  56      1    13      12      16      19     
  57      11   12      13      14      9      
  58      12   15      13      14      9      
  59      1    12      13      15      20     
  60      2    14      13      15      20     
  61      1    19      20      15      13     
  62      33   21      20      15      13     
  63      1    20      19      16      12     
  64      33   30      19      16      12     
  65      3    16      19      20      15     
  66      28   21      20      19      16     
  67      28   30      19      20      15     
  68      27   30      19      20      21     
  69      26   15      20      21      22     
  70      25   15      20      21      28     
  71      24   19      20      21      22     
  72      23   19      20      21      28     
  73      31   20      21      22      23     
  74      32   28      21      22      23     
  75      6    1       2       34      33     
  76      7    3       2       34      33     
  77      36   26      25      27      1      
  78      11   33      25      27      1      
  79      6    2       1       27      25     
  80      7    6       1       27      25     
  81      22   21      28      29      30     
  82      30   28      29      30      31     
  83      29   28      29      30      19     
  84      32   29      30      31      32     
  85      31   19      30      31      32     
  86      29   29      28      21      20     
  87      30   29      28      21      22     
  88      25   16      19      30      29     
  89      26   16      19      30      31     
  90      23   20      19      30      29     
  91      24   20      19      30      31     
  92      36   24      33      34      2      
  93      11   25      33      34      2      
  94      35   26      25      33      34     
  95      5    34      33      25      27     
  96      34   24      33      25      26     
  97      35   24      33      25      27     

