pySIMM System Object

600 atoms
596 bonds
1168 angles
1908 dihedrals
0 impropers

6 atom types
7 bond types
10 angle types
4 dihedral types

-9.255127 9.255127 xlo xhi
-9.255127 9.255127 ylo yhi
-9.255127 9.255127 zlo zhi

Masses

   1	16.0	# os
   2	12.01	# c3
   3	16.0	# o
   4	12.01	# c
   5	1.008	# h1
   6	1.008	# hc

Pair Coeffs

   1	0.17	3.00001234347	# os
   2	0.1094	3.39966950842	# c3
   3	0.21	2.95992190115	# o
   4	0.086	3.39966950842	# c
   5	0.0157	2.47135304412	# h1
   6	0.0157	2.64953278775	# hc

Bond Coeffs

   1	337.3	1.092	# c3,hc
   2	301.5	1.439	# c3,os
   3	328.3	1.508	# c,c3
   4	648.0	1.214	# c,o
   5	303.1	1.535	# c3,c3
   6	411.3	1.343	# c,os
   7	335.9	1.093	# c3,h1

Angle Coeffs

   1	39.18	109.55	# h1,c3,h1
   2	39.43	108.35	# hc,c3,hc
   3	68.03	123.11	# c3,c,o
   4	63.63	115.14	# c,os,c3
   5	63.79	110.53	# c,c3,c3
   6	75.93	123.33	# o,c,os
   7	46.37	110.05	# c3,c3,hc
   8	50.84	108.82	# h1,c3,os
   9	63.21	110.63	# c3,c3,c3
  10	69.26	111.96	# c3,c,os

Dihedral Coeffs

   1	0.16	 1	3	# X,c3,c3,X
   2	2.7	-1	2	# X,c,os,X
   3	2.0	-1	2	# X,c,c3,X
   4	0.383333333333	 1	3	# X,c3,os,X

Atoms

   1	1	1	-0.323288702324	9.05199371175	9.12523856685	8.95463746309
   2	1	3	-0.261204888205	-8.09110786777	-7.62552150907	-9.18151457319
   3	1	2	0.00397478325971	8.00570824052	-7.21776824135	8.98395364629
   4	1	2	-0.0463342723211	7.25544075069	-7.59681544614	-8.25898279586
   5	1	4	0.285803391216	-9.18432837679	-8.07730852226	8.97914129823
   6	1	2	-0.110142960479	8.2892393962	-5.68244215921	9.06314430688
   7	1	2	0.012677052016	-8.45322779102	8.10670748575	8.64142139939
   8	1	6	0.0336720826121	6.36499198164	-6.98153562309	-8.08211416372
   9	1	6	0.0336720826121	6.99230045023	-8.68987480006	-8.22280482165
  10	1	6	0.0336720826121	7.80121804534	-7.33844827193	-7.37385796465
  11	1	6	0.0677635500019	8.60135276643	-5.35706682592	-8.45541616762
  12	1	6	0.0677635500019	9.0810672592	-5.5159152956	8.33189434998
  13	1	5	0.0673240829995	-8.80587708169	7.17885934781	9.02310110147
  14	1	5	0.0673240829995	-7.4428894302	8.41550034559	9.02381975573
  15	1	5	0.0673240829995	-8.41665332713	8.05141372383	7.49576163406
  16	1	1	-0.323288702324	6.16171986181	-5.24729111975	6.62909574234
  17	1	3	-0.261204888205	8.23069557616	-4.99134475606	5.90462513768
  18	1	2	0.00397478325971	7.46164405858	-7.23960563451	6.38664079077
  19	1	2	-0.0463342723211	8.96470819558	-7.62467225091	6.04537956756
  20	1	4	0.285803391216	7.35293980038	-5.77304835197	6.3127378952
  21	1	2	-0.110142960479	7.01752658367	-7.66494830782	7.84678586509
  22	1	2	0.012677052016	5.98653654739	-3.83121883048	6.81541975648
  23	1	6	0.0336720826121	-8.79028992958	-7.11727820311	6.67952797718
  24	1	6	0.0336720826121	9.0912031472	-8.70655511554	6.1343662956
  25	1	6	0.0336720826121	9.13507625366	-7.32300577706	4.99186271389
  26	1	6	0.0677635500019	6.79739443333	-8.752834533	7.9033594265
  27	1	6	0.0677635500019	5.99791947027	-7.24618895065	7.9782114826
  28	1	5	0.0673240829995	5.23913732374	-3.70339288459	7.64097169072
  29	1	5	0.0673240829995	5.56153492446	-3.40524463392	5.88201801895
  30	1	5	0.0673240829995	6.94183236082	-3.3342693053	7.11628729277
  31	1	1	-0.323288702324	7.32650083228	-8.57296784062	1.97465483282
  32	1	3	-0.261204888205	7.96802375116	8.9208530436	3.85875695257
  33	1	2	0.00397478325971	6.30226018422	-7.77154977045	3.99767632935
  34	1	2	-0.0463342723211	6.67504569376	-6.33284562079	3.39307662578
  35	1	4	0.285803391216	7.33105972874	-8.72946602219	3.31629458388
  36	1	2	-0.110142960479	6.38525563319	-7.97756931917	5.56438117327
  37	1	2	0.012677052016	8.09217667676	9.05447180754	1.08930639445
  38	1	6	0.0336720826121	7.71235440811	-6.09161794664	3.64957977685
  39	1	6	0.0336720826121	6.53467130785	-6.27138594628	2.27231373162
  40	1	6	0.0336720826121	6.06425823115	-5.57770554062	3.88836733428
  41	1	6	0.0677635500019	5.31021320423	-7.77775444998	5.97206433848
  42	1	6	0.0677635500019	6.42228222292	-9.10629760472	5.61591422878
  43	1	5	0.0673240829995	8.00460312347	8.04601370559	1.50672674623
  44	1	5	0.0673240829995	9.11481205584	-9.12172090942	1.01539074804
  45	1	5	0.0673240829995	7.7995626947	9.0596622667	0.0787420248755
  46	1	1	-0.323288702324	2.56894906246	-8.20777102526	5.16219194811
  47	1	3	-0.261204888205	3.47649394956	8.44382401795	5.91559943017
  48	1	2	0.00397478325971	4.10502267905	9.05650624698	3.70553775473
  49	1	2	-0.0463342723211	4.92870226403	7.78277175722	3.80568415247
  50	1	4	0.285803391216	3.43623888547	9.23487771928	5.07556178176
  51	1	2	-0.110142960479	4.83587499979	-8.0383787437	3.41428164697
  52	1	2	0.012677052016	1.53064354233	-8.22836731251	6.1585771769
  53	1	6	0.0336720826121	4.4079686809	6.84237986783	4.02534423815
  54	1	6	0.0336720826121	5.54816549018	7.60462635368	2.8318830779
  55	1	6	0.0336720826121	5.746087202	7.76012045298	4.55983269131
  56	1	6	0.0677635500019	4.96698921637	-7.92031739191	2.30246598435
  57	1	6	0.0677635500019	4.28436668699	-7.17061940389	3.68669064449
  58	1	5	0.0673240829995	1.04243740258	-9.20829841114	6.0810982595
  59	1	5	0.0673240829995	0.77954141032	-7.43681078578	5.96061914572
  60	1	5	0.0673240829995	1.94401817581	-8.03728584212	7.13089222121
  61	1	1	-0.323288702324	3.65104366858	5.84246125085	0.717407055731
  62	1	3	-0.261204888205	2.25351792159	6.15632979959	2.36603729195
  63	1	2	0.00397478325971	3.01159887545	8.18571214784	1.30674826359
  64	1	2	-0.0463342723211	4.21813111209	8.51524977428	0.421564560726
  65	1	4	0.285803391216	3.09691129168	6.63942906517	1.64755474462
  66	1	2	-0.110142960479	2.91438251986	9.02017465403	2.63566766937
  67	1	2	0.012677052016	3.51810574613	4.44452508406	0.723597349996
  68	1	6	0.0336720826121	5.16929106274	8.03218566372	0.655126203183
  69	1	6	0.0336720826121	4.03836991714	8.19042235145	-0.585083087152
  70	1	6	0.0336720826121	4.40717989697	-8.92801143343	0.346829191476
  71	1	6	0.0677635500019	2.75239056302	-8.43347876799	2.41212881952
  72	1	6	0.0677635500019	1.95393766951	8.77756233365	3.13712596445
  73	1	5	0.0673240829995	2.40570298158	4.16132987794	0.788410901067
  74	1	5	0.0673240829995	4.0069818054	4.07424628123	1.62074675533
  75	1	5	0.0673240829995	4.0093293884	3.96421300825	-0.0239016863881
  76	1	1	-0.323288702324	-0.590678446656	8.56653312872	-1.28594923563
  77	1	3	-0.261204888205	1.06767504568	-9.19873755104	-2.51803055918
  78	1	2	0.00397478325971	1.12633872059	-8.74947187678	-0.13188412352
  79	1	2	-0.0463342723211	2.33512563046	-7.78036470194	-0.543592638955
  80	1	4	0.285803391216	0.495735507711	-9.20456285031	-1.46877568019
  81	1	2	-0.110142960479	1.65729884669	8.39214189956	0.491325241572
  82	1	2	0.012677052016	-1.39119645811	7.97449175816	-2.29103479611
  83	1	6	0.0336720826121	3.07413204007	-8.3350768449	-1.19353251302
  84	1	6	0.0336720826121	1.95723351768	-6.96033440386	-1.20357955306
  85	1	6	0.0336720826121	2.89655633723	-7.39669205152	0.318609639562
  86	1	6	0.0677635500019	1.69968925924	7.63606078255	-0.288543595981
  87	1	6	0.0677635500019	0.881792310981	7.99518688873	1.10709388734
  88	1	5	0.0673240829995	-1.78086362325	8.75258998643	-2.90061197933
  89	1	5	0.0673240829995	-2.24249115192	7.37843555099	-1.83584472901
  90	1	5	0.0673240829995	-0.730645198761	7.37617186274	-2.88511900388
  91	1	1	-0.323288702324	1.3343744567	-5.78393254718	1.93504111026
  92	1	3	-0.261204888205	0.785152452281	-4.60169485575	0.0477639286497
  93	1	2	0.00397478325971	-0.508135714691	-6.62275624108	0.545619530738
  94	1	2	-0.0463342723211	-1.0205551697	-6.54331979539	-0.944072510253
  95	1	4	0.285803391216	0.597563543918	-5.59715881117	0.766318121556
  96	1	2	-0.110142960479	0.0484254882885	-8.07022555613	0.868919486206
  97	1	2	0.012677052016	2.50488651	-4.99295312693	2.1307013216
  98	1	6	0.0336720826121	-1.69095669102	-7.42030382195	-1.16423895549
  99	1	6	0.0336720826121	-1.46925073801	-5.58268325433	-1.12590977711
 100	1	6	0.0336720826121	-0.21090398747	-6.63806449421	-1.73164194845
 101	1	6	0.0677635500019	-0.798521403631	-8.77611542058	0.945079728141
 102	1	6	0.0677635500019	0.514427844279	-8.15229381738	1.81755215209
 103	1	5	0.0673240829995	3.23939162966	-5.14567763831	1.32872948465
 104	1	5	0.0673240829995	2.89476377897	-5.18953460991	3.10769422725
 105	1	5	0.0673240829995	2.1493456493	-3.93841446158	2.13869949189
 106	1	1	-0.323288702324	-0.701508709753	-4.43955655766	4.28790721785
 107	1	3	-0.261204888205	-1.18110813486	-3.67059068042	2.29216590843
 108	1	2	0.00397478325971	-1.92682656633	-5.9618761473	2.85464118854
 109	1	2	-0.0463342723211	-1.19729643001	-7.03688851149	3.62604149206
 110	1	4	0.285803391216	-1.20074984623	-4.62207499077	3.06823655525
 111	1	2	-0.110142960479	-1.89663758679	-6.33007323439	1.33287808767
 112	1	2	0.012677052016	0.0500899121936	-3.24380617608	4.61158234422
 113	1	6	0.0336720826121	-1.64627956595	-8.0007492846	3.42968598621
 114	1	6	0.0336720826121	-0.137492665566	-7.11971555893	3.33567274503
 115	1	6	0.0336720826121	-1.27294054537	-6.95122469296	4.72344948648
 116	1	6	0.0677635500019	-2.46463444761	-5.5525593048	0.884500581684
 117	1	6	0.0677635500019	-2.52502282775	-7.25488511261	1.15315682585
 118	1	5	0.0673240829995	-0.520423532196	-2.40234613416	4.75642135658
 119	1	5	0.0673240829995	0.661365321133	-3.06349680868	3.67803605691
 120	1	5	0.0673240829995	0.669740120128	-3.43460680852	5.51932822836
 121	1	1	-0.323288702324	-5.67673204768	-5.15398012894	5.0412149141
 122	1	3	-0.261204888205	-6.84555453221	-4.35813469649	3.36090207802
 123	1	2	0.00397478325971	-4.60503325751	-5.10996412306	2.83200491697
 124	1	2	-0.0463342723211	-4.27527692387	-3.67944488904	2.32429055815
 125	1	4	0.285803391216	-5.79911849137	-4.86507904079	3.73801643969
 126	1	2	-0.110142960479	-3.37001865971	-5.75916635313	3.53362791066
 127	1	2	0.012677052016	-6.86831362266	-5.24662599206	5.80584273119
 128	1	6	0.0336720826121	-5.181730076	-3.22658286253	1.97336983336
 129	1	6	0.0336720826121	-3.82805007616	-3.08839669915	3.0783757206
 130	1	6	0.0336720826121	-3.50446750263	-3.63483356003	1.57010493962
 131	1	6	0.0677635500019	-3.725865106	-6.74344427314	3.91773172325
 132	1	6	0.0677635500019	-3.1785951001	-5.26741929857	4.48606451502
 133	1	5	0.0673240829995	-6.72907598494	-5.49360439193	6.84522204653
 134	1	5	0.0673240829995	-7.61002308224	-5.87739782092	5.33670936037
 135	1	5	0.0673240829995	-7.33769795398	-4.20261801376	5.78000932734
 136	1	1	-0.323288702324	-6.193859916	-8.982824764	-0.105475495323
 137	1	3	-0.261204888205	-4.17889346805	-8.08085950237	-0.583143096321
 138	1	2	0.00397478325971	-5.33853543728	-7.3981556438	1.48397393649
 139	1	2	-0.0463342723211	-6.61633410195	-7.74259403415	2.32175341411
 140	1	4	0.285803391216	-5.20147935536	-8.07939683361	0.0749834503903
 141	1	2	-0.110142960479	-5.08404526323	-5.82961058848	1.46120521563
 142	1	2	0.012677052016	-6.15627725096	8.55969154047	-1.14664546415
 143	1	6	0.0336720826121	-7.48774152196	-7.26128955869	1.86344391851
 144	1	6	0.0336720826121	-6.7452543502	-8.80836605871	2.30434158233
 145	1	6	0.0336720826121	-6.28518927186	-7.41655827508	3.33520860225
 146	1	6	0.0677635500019	-5.98572134013	-5.37036808562	1.09091323885
 147	1	6	0.0677635500019	-4.41554327929	-5.65858637307	0.57048354676
 148	1	5	0.0673240829995	-7.12964895111	8.14141588297	-1.19337551254
 149	1	5	0.0673240829995	-5.43396341868	7.8154945938	-0.907124248317
 150	1	5	0.0673240829995	-5.97923122371	8.94195111776	-2.09770979302
 151	2	1	-0.323288702324	5.57676047032	1.97463352792	-0.863162107804
 152	2	3	-0.261204888205	4.85178313138	-0.144477962662	-1.46977446258
 153	2	2	0.00397478325971	4.93076242722	0.451945546397	0.958240533924
 154	2	2	-0.0463342723211	4.8786711846	-1.13458789486	1.1022412998
 155	2	4	0.285803391216	5.00558150664	0.765570710148	-0.561552459927
 156	2	2	-0.110142960479	3.61494859543	1.02017234696	1.4907146395
 157	2	2	0.012677052016	5.96074185968	2.15197886512	-2.23383716343
 158	2	6	0.0336720826121	4.03869228378	-1.50930546149	0.483186297343
 159	2	6	0.0336720826121	5.83682743097	-1.606382342	0.901343652948
 160	2	6	0.0336720826121	4.65016997931	-1.28624999001	2.16737003552
 161	2	6	0.0677635500019	3.05509978777	1.56825339924	0.751211036215
 162	2	6	0.0677635500019	2.88885641104	0.197423040369	1.62314590248
 163	2	5	0.0673240829995	5.05581311177	2.17230743928	-2.87334248314
 164	2	5	0.0673240829995	6.73089886318	1.43691021685	-2.42419017041
 165	2	5	0.0673240829995	6.43441416133	3.09953733055	-2.40965592674
 166	2	1	-0.323288702324	9.00125788694	-1.01137644429	2.3675739518
 167	2	3	-0.261204888205	7.01470229494	-0.945451571488	3.50522019432
 168	2	2	0.00397478325971	7.52201453817	0.849611689752	1.9529120841
 169	2	2	-0.0463342723211	8.2729384201	0.751187478593	0.560533214782
 170	2	4	0.285803391216	7.79176345434	-0.490838740419	2.65016427303
 171	2	2	-0.110142960479	5.94086894227	1.17668554982	1.87318303278
 172	2	2	0.012677052016	-9.03918607897	-2.26709552989	2.92444573577
 173	2	6	0.0336720826121	-9.14416015453	0.78917470314	0.600624769493
 174	2	6	0.0336720826121	8.0320446079	-0.170963741691	0.0214957718965
 175	2	6	0.0336720826121	7.96920755727	1.61556378746	-0.0657776151452
 176	2	6	0.0677635500019	5.87851594574	2.25481916654	1.5125027043
 177	2	6	0.0677635500019	5.63598010776	1.1745183974	2.95452883806
 178	2	5	0.0673240829995	8.91850560756	-3.16210282223	2.68058377612
 179	2	5	0.0673240829995	-9.22006511757	-2.09950116933	3.95823212308
 180	2	5	0.0673240829995	-7.99869266886	-2.35096463364	2.68197438487
 181	2	1	-0.323288702324	6.58254237809	1.68083072451	5.44960816115
 182	2	3	-0.261204888205	8.73699066201	0.947171400067	5.2292971961
 183	2	2	0.00397478325971	7.94845340936	2.82126718639	3.90553868204
 184	2	2	-0.0463342723211	6.67319533948	3.65541015706	3.68971030916
 185	2	4	0.285803391216	7.8321751225	1.76341311569	4.98129505466
 186	2	2	-0.110142960479	8.24045679381	2.12253831893	2.56472407431
 187	2	2	0.012677052016	6.30547375959	0.498576185489	6.33122192887
 188	2	6	0.0336720826121	5.78310917271	3.22852361081	3.37853307314
 189	2	6	0.0336720826121	6.37083658226	4.04488607253	4.5964949726
 190	2	6	0.0336720826121	6.85292203201	4.51787825399	3.09233354091
 191	2	6	0.0677635500019	-9.25038115098	1.77086819865	2.55534865351
 192	2	6	0.0677635500019	8.16159768489	2.97396056152	1.80093354866
 193	2	5	0.0673240829995	7.01617299576	0.608862742404	7.20572195175
 194	2	5	0.0673240829995	6.38681871065	-0.353361097045	5.76313888431
 195	2	5	0.0673240829995	5.32475655556	0.647037184423	6.61403484211
 196	2	1	-0.323288702324	8.29697494783	5.96316857028	6.79697468975
 197	2	3	-0.261204888205	8.06161476671	6.14710778288	4.64496157575
 198	2	2	0.00397478325971	-8.99528059996	4.45622888967	5.42800869773
 199	2	2	-0.0463342723211	-8.93300822635	3.57602120107	6.69299005907
 200	2	4	0.285803391216	8.42440055567	5.478398461	5.57095541786
 201	2	2	-0.110142960479	-9.25056633665	3.71580771071	4.12949823577
 202	2	2	0.012677052016	7.26302487747	6.90650577371	7.23547500366
 203	2	6	0.0336720826121	-8.63694967278	4.05849080693	7.61048546933
 204	2	6	0.0336720826121	8.57751146992	3.3056427311	6.95242085849
 205	2	6	0.0336720826121	-8.24235060155	2.77430509096	6.62775439345
 206	2	6	0.0677635500019	-9.16536122167	4.39706728393	3.39982298342
 207	2	6	0.0677635500019	-8.34898803776	3.00036015356	4.02399114646
 208	2	5	0.0673240829995	7.48237699044	7.96699860066	6.76200893675
 209	2	5	0.0673240829995	7.5022658022	6.95939733523	8.33861825456
 210	2	5	0.0673240829995	6.20273584164	6.72869377084	7.08348424776
 211	2	1	-0.323288702324	-6.78331439903	4.47695875383	2.09780530237
 212	2	3	-0.261204888205	-5.79185012755	3.52131895008	3.85029209136
 213	2	2	0.00397478325971	-6.80448000504	5.74786011681	4.1282890891
 214	2	2	-0.0463342723211	-7.77594480945	6.66996143577	3.40468836288
 215	2	4	0.285803391216	-6.23294349778	4.55491143101	3.34093240386
 216	2	2	-0.110142960479	-7.61398509997	5.28394016002	5.43260355002
 217	2	2	0.012677052016	-6.60524038713	3.30256083151	1.36598742161
 218	2	6	0.0336720826121	-8.67837776245	6.1686324687	3.00041559188
 219	2	6	0.0336720826121	-8.06575242476	7.52165843056	3.96375924228
 220	2	6	0.0336720826121	-7.32641392076	7.01484115454	2.5190111726
 221	2	6	0.0677635500019	-6.95862521148	4.68871562486	6.04886512343
 222	2	6	0.0677635500019	-7.59396474381	6.1618634069	6.08507725748
 223	2	5	0.0673240829995	-7.17986918199	3.40906677556	0.443158781308
 224	2	5	0.0673240829995	-6.98117446532	2.46083406179	1.94720886686
 225	2	5	0.0673240829995	-5.54463282776	3.13596114527	1.15201431577
 226	2	1	-0.323288702324	-3.78189661837	8.50732168781	5.63384221141
 227	2	3	-0.261204888205	-3.83649744023	-9.18525915081	3.60830819413
 228	2	2	0.00397478325971	-4.22518270613	6.87301774892	3.86355939812
 229	2	2	-0.0463342723211	-4.36375614503	6.89760807882	2.2876258042
 230	2	4	0.285803391216	-3.73912148546	8.32447651053	4.30230210346
 231	2	2	-0.110142960479	-5.62572161322	6.6137227213	4.6645363873
 232	2	2	0.012677052016	-3.13877330554	-8.86483732183	6.21681117858
 233	2	6	0.0336720826121	-4.81119225945	5.96518934754	1.88576276719
 234	2	6	0.0336720826121	-5.09388620998	7.68332165678	1.96545363175
 235	2	6	0.0336720826121	-3.50876551271	7.0942693206	1.74625752339
 236	2	6	0.0677635500019	-6.03944091757	7.59425199864	5.03258452377
 237	2	6	0.0677635500019	-5.36324308867	6.19235438385	5.63820634221
 238	2	5	0.0673240829995	-3.31193268367	-8.86152977027	7.26774239582
 239	2	5	0.0673240829995	-3.59921008145	-7.94139685432	5.8391587501
 240	2	5	0.0673240829995	-2.04038433671	-8.73191267122	6.03111180715
 241	2	1	-0.323288702324	-2.219841577	4.26648448764	1.9550876057
 242	2	3	-0.261204888205	-1.20317365272	6.07564057158	1.26191864214
 243	2	2	0.00397478325971	-1.62984418171	5.82457764093	3.68105879571
 244	2	2	-0.0463342723211	-0.868708161232	7.18371265634	3.78174804474
 245	2	4	0.285803391216	-1.76170372877	5.48835928467	2.17391858763
 246	2	2	-0.110142960479	-3.11001782094	5.90105682045	4.32106355287
 247	2	2	0.012677052016	-2.3355791772	3.78172314306	0.581028655377
 248	2	6	0.0336720826121	-1.02892868314	7.55754285509	4.87484924739
 249	2	6	0.0336720826121	0.233615569613	7.09323611736	3.53195275633
 250	2	6	0.0336720826121	-1.30041728889	7.88859698366	3.03808174427
 251	2	6	0.0677635500019	-2.73511370647	6.36316799767	5.26727519585
 252	2	6	0.0677635500019	-3.59163052486	4.94923681442	4.69391710481
 253	2	5	0.0673240829995	-1.35654481086	3.90663342659	0.105685986368
 254	2	5	0.0673240829995	-3.13717422356	4.35761538862	0.0549784843507
 255	2	5	0.0673240829995	-2.73014885852	2.75334517739	0.556085511856
 256	2	1	-0.323288702324	-2.01177306304	4.70688441533	7.07356622762
 257	2	3	-0.261204888205	-0.789238470105	6.54915822964	7.31385710444
 258	2	2	0.00397478325971	-0.0341308046326	4.82887867446	5.80033126604
 259	2	2	-0.0463342723211	1.24998385712	5.67338971526	5.63375198444
 260	2	4	0.285803391216	-0.914830307303	5.43531406881	6.83673411132
 261	2	2	-0.110142960479	-0.808855096248	4.65042329896	4.43904547545
 262	2	2	0.012677052016	-3.07075597293	5.23607112626	7.83637441953
 263	2	6	0.0336720826121	1.76961597402	5.4345154345	4.75068408678
 264	2	6	0.0336720826121	1.03066846952	6.73381610556	5.61497907657
 265	2	6	0.0336720826121	1.92954016613	5.57635867903	6.50511772315
 266	2	6	0.0677635500019	-0.0232359911956	4.35086087351	3.78213174341
 267	2	6	0.0677635500019	-1.54564139162	3.83032655531	4.50087415338
 268	2	5	0.0673240829995	-3.89554096274	4.52899937531	7.80623894503
 269	2	5	0.0673240829995	-3.46729388381	6.1991844716	7.41857347419
 270	2	5	0.0673240829995	-2.91077788984	5.2965442562	8.92611685104
 271	2	1	-0.323288702324	0.455952326771	1.55012868481	3.23342756745
 272	2	3	-0.261204888205	-0.902186550786	1.24137822518	5.0250827973
 273	2	2	0.00397478325971	1.19770050562	2.41398321395	5.4367169829
 274	2	2	-0.0463342723211	2.47834378403	2.88115943537	4.68970282754
 275	2	4	0.285803391216	0.141171237262	1.6846793091	4.5377929519
 276	2	2	-0.110142960479	0.532684493209	3.46818194766	6.36078798847
 277	2	2	0.012677052016	-0.329766303615	0.720919821419	2.4097183597
 278	2	6	0.0336720826121	3.0417352965	3.54479093528	5.31105613942
 279	2	6	0.0336720826121	3.14113006531	2.09423395397	4.2891018096
 280	2	6	0.0336720826121	2.21619784353	3.48343167749	3.78687317704
 281	2	6	0.0677635500019	1.14803055339	3.61705481087	7.25112456335
 282	2	6	0.0677635500019	-0.287096814868	2.98505660677	6.79068726742
 283	2	5	0.0673240829995	-0.181905575559	-0.307938110418	2.61785488408
 284	2	5	0.0673240829995	-0.0263393917462	0.910365419312	1.40004623733
 285	2	5	0.0673240829995	-1.4013213731	0.994462105468	2.55218058609
 286	2	1	-0.323288702324	0.215683998227	-0.0186007453763	-8.9374774798
 287	2	3	-0.261204888205	0.70121198623	2.02734240334	9.10208563488
 288	2	2	0.00397478325971	0.911399806437	0.535862299963	7.33587583867
 289	2	2	-0.0463342723211	0.868100863277	-1.03560813495	7.01639719775
 290	2	4	0.285803391216	0.628921674691	0.928579729788	8.73103763253
 291	2	2	-0.110142960479	1.85036805372	1.35276410107	6.39991096969
 292	2	2	0.012677052016	-0.395885405511	0.183366307257	-7.64868735034
 293	2	6	0.0336720826121	1.17111703026	-1.36157992053	5.97899985678
 294	2	6	0.0336720826121	1.60217340413	-1.54984611798	7.75303864258
 295	2	6	0.0336720826121	-0.121170999903	-1.41374780453	7.25756864047
 296	2	6	0.0677635500019	2.468890671	0.623705235496	5.8381849197
 297	2	6	0.0677635500019	2.47915879689	1.8054238279	7.07506903458
 298	2	5	0.0673240829995	0.0237507340871	1.03062083295	-7.06720959653
 299	2	5	0.0673240829995	-0.22377460502	-0.713977167355	-7.09061764986
 300	2	5	0.0673240829995	-1.47394729115	0.409122975851	-7.68734674937
 301	3	1	-0.323288702324	1.83372837963	-5.41561769622	7.46763402743
 302	3	3	-0.261204888205	3.14652836264	-4.1299797119	8.77097706399
 303	3	2	0.00397478325971	1.27278932936	-5.20705386169	-8.6777854778
 304	3	2	-0.0463342723211	1.93292783593	-4.55787294941	-7.43072113064
 305	3	4	0.285803391216	2.12201540135	-4.76661004171	8.65009963186
 306	3	2	-0.110142960479	-0.123961051877	-4.5978191137	-8.92595422419
 307	3	2	0.012677052016	2.67994161284	-5.07818101661	6.34959981952
 308	3	6	0.0336720826121	2.97558971732	-4.9165657733	-7.37125691899
 309	3	6	0.0336720826121	1.94623892557	-3.46741066672	-7.51158770328
 310	3	6	0.0336720826121	1.47611395767	-4.73396117319	-6.45432918858
 311	3	6	0.0677635500019	-0.00885649922729	-3.55312939218	-9.11409142563
 312	3	6	0.0677635500019	-0.49705804468	-5.00980046358	8.66674950713
 313	3	5	0.0673240829995	2.84666346938	-4.02379297288	6.25860300511
 314	3	5	0.0673240829995	2.03939049109	-5.38946125521	5.45425398972
 315	3	5	0.0673240829995	3.64004084546	-5.60857823326	6.36006340542
 316	3	1	-0.323288702324	1.1668566201	-6.75181051794	-5.13725208217
 317	3	3	-0.261204888205	2.63361841976	-7.91151628554	-6.37944300612
 318	3	2	0.00397478325971	0.475611717772	-7.59907855594	-7.33553788079
 319	3	2	-0.0463342723211	-0.822277456811	-6.92037019567	-6.95429898005
 320	3	4	0.285803391216	1.59375706914	-7.39671444835	-6.24127073252
 321	3	2	-0.110142960479	1.08221362765	-6.77083839297	-8.63237305611
 322	3	2	0.012677052016	2.01061243911	-6.55396706112	-3.98787490771
 323	3	6	0.0336720826121	-0.714570321978	-5.79867288511	-6.71026359482
 324	3	6	0.0336720826121	-1.45447571924	-6.96748968709	-7.74424757854
 325	3	6	0.0336720826121	-1.35172749229	-7.39435232927	-6.0490427322
 326	3	6	0.0677635500019	0.525273904124	-7.06842758054	9.03607962518
 327	3	6	0.0677635500019	2.1542719195	-7.16026055454	-8.83383416846
 328	3	5	0.0673240829995	2.57654934899	-5.62380354331	-4.09944659765
 329	3	5	0.0673240829995	2.64502994418	-7.4385301577	-3.90519829537
 330	3	5	0.0673240829995	1.42829492023	-6.46250084999	-3.09461345529
 331	3	1	-0.323288702324	-2.65139476384	9.05989765619	-5.78129634453
 332	3	3	-0.261204888205	-2.70394724023	8.86405022016	-8.05121011542
 333	3	2	0.00397478325971	-0.573181104536	8.40307899334	-6.85268907532
 334	3	2	-0.0463342723211	-0.0728892765405	8.54352933795	-5.39915880806
 335	3	4	0.285803391216	-2.08076568665	8.83877985415	-7.01071911566
 336	3	2	-0.110142960479	0.299101582299	-9.12023507767	-7.71529948605
 337	3	2	0.012677052016	-4.07994749809	-9.18922933123	-5.7611874616
 338	3	6	0.0336720826121	-0.21694620204	-8.99596707589	-4.9226773175
 339	3	6	0.0336720826121	-0.672998071852	7.96430286415	-4.75980690097
 340	3	6	0.0336720826121	0.966161039599	8.22901782002	-5.30837856597
 341	3	6	0.0677635500019	-0.0147544000773	-9.1645083379	-8.71719692242
 342	3	6	0.0677635500019	1.28768581467	8.92260841054	-7.83921020514
 343	3	5	0.0673240829995	-4.50167272827	8.3932159049	-6.16372480456
 344	3	5	0.0673240829995	-4.32653206062	-8.34421797216	-6.47475562132
 345	3	5	0.0673240829995	-4.43813852105	-8.95586746882	-4.74418506336
 346	3	1	-0.323288702324	-2.31853034014	5.52058117034	-4.8000209779
 347	3	3	-0.261204888205	-2.91129449614	5.89792575152	-6.91848780438
 348	3	2	0.00397478325971	-0.616850344618	5.58529170712	-6.66595111853
 349	3	2	-0.0463342723211	-0.623131995251	4.43910496364	-7.69942098163
 350	3	4	0.285803391216	-2.06215753474	5.74314746555	-6.1086561538
 351	3	2	-0.110142960479	-0.356037279876	6.94990872577	-7.44807651913
 352	3	2	0.012677052016	-3.65278199073	5.67813872404	-4.30448752099
 353	3	6	0.0336720826121	-0.716144601496	3.52908554865	-7.08696025448
 354	3	6	0.0336720826121	-1.50764227512	4.48812345118	-8.39219928327
 355	3	6	0.0336720826121	0.263738297044	4.48119386538	-8.31291283837
 356	3	6	0.0677635500019	0.60357578815	6.88673159606	-7.8499502314
 357	3	6	0.0677635500019	-0.928160818013	6.98117097217	-8.33548493045
 358	3	5	0.0673240829995	-3.62327625157	5.41224884154	-3.27758290823
 359	3	5	0.0673240829995	-4.42947678755	5.0185119609	-4.78278281877
 360	3	5	0.0673240829995	-3.9578244296	6.68961751516	-4.48354657433
 361	3	1	-0.323288702324	2.80133047571	6.41382822261	-4.12129912759
 362	3	3	-0.261204888205	2.87667136096	4.22509035581	-3.621958749
 363	3	2	0.00397478325971	1.95047495868	4.86007302588	-5.81787118399
 364	3	2	-0.0463342723211	2.00394938618	3.30815767785	-6.05881239648
 365	3	4	0.285803391216	2.66612310391	5.09665710124	-4.44486865439
 366	3	2	-0.110142960479	0.468670412195	5.32193333931	-5.54392890377
 367	3	2	0.012677052016	3.35752095694	6.76582611499	-2.79280740801
 368	3	6	0.0336720826121	3.00798873894	2.926357529	-5.93899957425
 369	3	6	0.0336720826121	1.31361958274	2.78181049249	-5.39791732613
 370	3	6	0.0336720826121	1.7510073957	2.91398365119	-7.06912518971
 371	3	6	0.0677635500019	0.0285746519633	4.57905838913	-4.91760960473
 372	3	6	0.0677635500019	0.549561266806	6.18470095416	-4.89925790095
 373	3	5	0.0673240829995	4.34087890525	6.35686802772	-2.65303340679
 374	3	5	0.0673240829995	2.72949669714	6.41463569352	-1.96347467529
 375	3	5	0.0673240829995	3.24659312604	7.8223341635	-2.68673741225
 376	3	1	-0.323288702324	3.97243608355	7.87490641895	-8.14774583454
 377	3	3	-0.261204888205	4.91237150736	6.33607095036	8.96052516428
 378	3	2	0.00397478325971	4.27860353272	5.64172496165	-7.2877530995
 379	3	2	-0.0463342723211	4.72541828708	4.2946673814	-7.91109974863
 380	3	4	0.285803391216	4.35458345944	6.62264133379	-8.46488058888
 381	3	2	-0.110142960479	2.7177449786	5.64562212646	-6.97014119623
 382	3	2	0.012677052016	4.22813907466	8.93071910107	-9.15260436362
 383	3	6	0.0336720826121	4.23041068632	3.96232717763	-8.79083339688
 384	3	6	0.0336720826121	5.7759782894	4.42238140212	-8.22904132356
 385	3	6	0.0336720826121	4.81579074428	3.46894521652	-7.22905243635
 386	3	6	0.0677635500019	2.55589225077	6.68384384604	-6.73234000339
 387	3	6	0.0677635500019	2.22760955115	5.26850934399	-7.88437704911
 388	3	5	0.0673240829995	3.99727346742	-8.61648260037	-8.6379295554
 389	3	5	0.0673240829995	3.59811089745	8.74845466794	8.52299711128
 390	3	5	0.0673240829995	5.25139997957	8.91035334153	8.99881741059
 391	3	1	-0.323288702324	8.33007379475	4.9278185388	-7.29317783022
 392	3	3	-0.261204888205	6.9444384209	3.8823186231	-5.84644179306
 393	3	2	0.00397478325971	6.69166437997	6.23423893964	-6.02738748972
 394	3	2	-0.0463342723211	7.12822468588	7.35054273454	-7.06974994958
 395	3	4	0.285803391216	7.33824979661	4.90014245678	-6.34220717721
 396	3	2	-0.110142960479	5.0953731639	6.05445239193	-6.00522959425
 397	3	2	0.012677052016	9.01309242851	3.67933794238	-7.58121593241
 398	3	6	0.0336720826121	6.85222732894	7.15773704704	-8.07029618835
 399	3	6	0.0336720826121	6.76383081895	8.33913047477	-6.75390031335
 400	3	6	0.0336720826121	8.25323415237	7.32237535538	-7.08388225521
 401	3	6	0.0677635500019	4.70015685948	6.97544525737	-5.63555421786
 402	3	6	0.0677635500019	4.88054139566	5.19064902149	-5.32556444773
 403	3	5	0.0673240829995	8.25031688044	2.92986378434	-7.84815680381
 404	3	5	0.0673240829995	-8.83225778332	3.45921236726	-6.70044528838
 405	3	5	0.0673240829995	-8.74440213375	3.79496585858	-8.45183331698
 406	3	1	-0.323288702324	-9.15549117842	8.68290812682	-4.89642961133
 407	3	3	-0.261204888205	-8.1638246921	6.66172861396	-5.52542047263
 408	3	2	0.00397478325971	8.44569730047	6.66581083671	-3.93577895606
 409	3	2	-0.0463342723211	8.23093948633	7.51474221868	-2.65767705558
 410	3	4	0.285803391216	-8.93741503985	7.34118258511	-4.81859806359
 411	3	2	-0.110142960479	7.00094592914	6.71490331005	-4.56457168107
 412	3	2	0.012677052016	-8.3349052292	-9.08376254605	-5.85951762788
 413	3	6	0.0336720826121	7.61853179489	8.44769902876	-2.7220564565
 414	3	6	0.0336720826121	7.74775415268	6.91781987853	-1.90652304526
 415	3	6	0.0336720826121	9.22214560031	7.8176647218	-2.22286247833
 416	3	6	0.0677635500019	6.6508310783	7.72133862329	-4.43659580076
 417	3	6	0.0677635500019	6.44265452394	6.07206090843	-3.84173172752
 418	3	5	0.0673240829995	-8.20163001571	-8.09701659937	-5.41759464626
 419	3	5	0.0673240829995	-8.78096094689	-9.07191742558	-6.8381203284
 420	3	5	0.0673240829995	-7.22290549172	9.06723769111	-6.02153900505
 421	3	1	-0.323288702324	8.31463879682	4.57171405449	-0.673590135705
 422	3	3	-0.261204888205	-8.62893259966	6.10370411724	-0.36595319246
 423	3	2	0.00397478325971	-8.59134425819	4.9043481378	-2.52647565035