read using pysimm.system.read_mol

15 atoms
14 bonds
22 angles
19 dihedrals
0 impropers

6 atom types
7 bond types
10 angle types
4 dihedral types

-13.153287 13.079013 xlo xhi
-11.763073 12.173827 ylo yhi
-10.900753 10.899747 zlo zhi

Masses

   1	16.0	# os
   2	12.01	# c3
   3	16.0	# o
   4	12.01	# c
   5	1.008	# h1
   6	1.008	# hc

Pair Coeffs

   1	0.17	3.00001234347	# os
   2	0.1094	3.39966950842	# c3
   3	0.21	2.95992190115	# o
   4	0.086	3.39966950842	# c
   5	0.0157	2.47135304412	# h1
   6	0.0157	2.64953278775	# hc

Bond Coeffs

   1	337.3	1.092	# c3,hc
   2	301.5	1.439	# c3,os
   3	328.3	1.508	# c,c3
   4	648.0	1.214	# c,o
   5	303.1	1.535	# c3,c3
   6	411.3	1.343	# c,os
   7	335.9	1.093	# c3,h1

Angle Coeffs

   1	39.18	109.55	# h1,c3,h1
   2	39.43	108.35	# hc,c3,hc
   3	68.03	123.11	# c3,c,o
   4	63.63	115.14	# c,os,c3
   5	63.79	110.53	# c,c3,c3
   6	75.93	123.33	# o,c,os
   7	46.37	110.05	# c3,c3,hc
   8	50.84	108.82	# h1,c3,os
   9	63.21	110.63	# c3,c3,c3
  10	69.26	111.96	# c3,c,os

Dihedral Coeffs

   1	0.16	 1	3	# X,c3,c3,X
   2	2.7	-1	2	# X,c,os,X
   3	2.0	-1	2	# X,c,c3,X
   4	0.383333333333	 1	3	# X,c3,os,X

Atoms

   1	1	1	-0.323288702324	-1.26899765634	-0.342861485083	-0.00159913814159
   2	1	3	-0.261204888205	-0.670687290561	1.83652439722	0.163200518283
   3	1	2	0.00397478325971	1.07094506103	0.170438462308	0.274301812108
   4	1	2	-0.0463342723211	1.35383203165	-1.23518932218	-0.290434072726
   5	1	4	0.285803391216	-0.366872504894	0.65970354023	0.126933344134
   6	1	2	-0.110142960479	2.1463089681	1.19792080485	-0.1350363622
   7	1	2	0.012677052016	-2.67065491609	0.00478285264225	-0.113896008577
   8	1	6	0.0336720826121	0.80441921699	-1.99854994631	0.26477223763
   9	1	6	0.0336720826121	1.05681188778	-1.27890902595	-1.34042809986
  10	1	6	0.0336720826121	2.41940114493	-1.46594916162	-0.22413393447
  11	1	6	0.0677635500019	3.10335446678	0.936163958038	0.321662934137
  12	1	6	0.0677635500019	1.88215027085	2.20800103584	0.182927278016
  13	1	5	0.0673240829995	-2.81358825785	0.664148869194	-0.975088829708
  14	1	5	0.0673240829995	-2.98659125492	0.517008624021	0.799237955734
  15	1	5	0.0673240829995	-3.26066645802	-0.905571474592	-0.247595891683

Velocities

   1	-0.000667678615581	-0.000312463656627	0.00339253634944
   2	0.00275211066883	0.00116632206284	0.00189109079165
   3	0.00206590952401	-0.00101127686417	0.00341328084997
   4	0.000203146042517	-0.00301910879741	0.00333828759354
   5	0.00293578838105	0.0016232801095	-0.000913054183938
   6	-0.0010167147229	0.00270508859686	-0.00170453141503
   7	-0.00728199005925	0.00103527623307	-0.00563105672181
   8	0.014024206157	-0.00554532695868	-0.000155947324462
   9	-0.0162605958101	0.00500485801231	-0.0278460700669
  10	0.00535453560275	0.025005388146	-0.0110304388089
  11	0.0104812799549	-0.00704882178705	-0.0046644374548
  12	-0.00388302076803	-0.00930493534886	-0.0198257126735
  13	0.0119942897765	-9.69757189313e-05	0.00901249309983
  14	-0.00112252589644	-0.0173248695347	-0.00233904519793
  15	-0.0168120224181	-0.020127985884	-0.00918077906482

Bonds

   1	6	1	5
   2	2	1	7
   3	4	2	5
   4	5	3	4
   5	3	3	5
   6	5	3	6
   7	1	4	8
   8	1	4	9
   9	1	4	10
  10	1	6	11
  11	1	6	12
  12	7	7	13
  13	7	7	14
  14	7	7	15

Angles

   1	4	5	1	7
   2	5	4	3	5
   3	9	4	3	6
   4	5	5	3	6
   5	2	9	4	10
   6	7	9	4	3
   7	2	9	4	8
   8	7	10	4	3
   9	2	10	4	8
  10	7	3	4	8
  11	6	1	5	2
  12	10	1	5	3
  13	3	2	5	3
  14	2	11	6	12
  15	7	11	6	3
  16	7	12	6	3
  17	8	1	7	13
  18	8	1	7	14
  19	8	1	7	15
  20	1	13	7	14
  21	1	13	7	15
  22	1	14	7	15

Dihedrals

   1	2	7	1	5	2
   2	2	7	1	5	3
   3	4	5	1	7	13
   4	4	5	1	7	14
   5	4	5	1	7	15
   6	1	5	3	4	9
   7	1	5	3	4	10
   8	1	5	3	4	8
   9	1	6	3	4	9
  10	1	6	3	4	10
  11	1	6	3	4	8
  12	3	4	3	5	1
  13	3	4	3	5	2
  14	3	6	3	5	1
  15	3	6	3	5	2
  16	1	4	3	6	11
  17	1	4	3	6	12
  18	1	5	3	6	11
  19	1	5	3	6	12

