pySIMM System Object

600 atoms
596 bonds
1168 angles
1908 dihedrals
0 impropers

6 atom types
7 bond types
10 angle types
4 dihedral types

-8.849031 8.849031 xlo xhi
-8.849031 8.849031 ylo yhi
-8.849031 8.849031 zlo zhi

Masses

   1	16.0	# os
   2	12.01	# c3
   3	16.0	# o
   4	12.01	# c
   5	1.008	# h1
   6	1.008	# hc

Pair Coeffs

   1	0.17	3.00001234347	# os
   2	0.1094	3.39966950842	# c3
   3	0.21	2.95992190115	# o
   4	0.086	3.39966950842	# c
   5	0.0157	2.47135304412	# h1
   6	0.0157	2.64953278775	# hc

Bond Coeffs

   1	337.3	1.092	# c3,hc
   2	301.5	1.439	# c3,os
   3	328.3	1.508	# c,c3
   4	648.0	1.214	# c,o
   5	303.1	1.535	# c3,c3
   6	411.3	1.343	# c,os
   7	335.9	1.093	# c3,h1

Angle Coeffs

   1	39.18	109.55	# h1,c3,h1
   2	39.43	108.35	# hc,c3,hc
   3	68.03	123.11	# c3,c,o
   4	63.63	115.14	# c,os,c3
   5	63.79	110.53	# c,c3,c3
   6	75.93	123.33	# o,c,os
   7	46.37	110.05	# c3,c3,hc
   8	50.84	108.82	# h1,c3,os
   9	63.21	110.63	# c3,c3,c3
  10	69.26	111.96	# c3,c,os

Dihedral Coeffs

   1	0.16	 1	3	# X,c3,c3,X
   2	2.7	-1	2	# X,c,os,X
   3	2.0	-1	2	# X,c,c3,X
   4	0.383333333333	 1	3	# X,c3,os,X

Atoms

   1	1	1	-0.323288702324	-7.64846901351	-8.27477414561	8.08172877245
   2	1	3	-0.261204888205	8.06675138666	8.4385574768	8.51504915798
   3	1	2	0.00397478325971	8.25989022734	-6.85253174593	8.74683219606
   4	1	2	-0.0463342723211	6.73022387343	-6.69918424343	8.65084867222
   5	1	4	0.285803391216	8.75968956622	-8.27910610947	8.49202659874
   6	1	2	-0.110142960479	8.6713875069	-6.59666329025	-7.49459557407
   7	1	2	0.012677052016	-7.24106865478	8.33596964161	7.2387403979
   8	1	6	0.0336720826121	6.51552111633	-5.6530478239	8.41738835766
   9	1	6	0.0336720826121	6.25232315132	-7.33742562003	7.91186398118
  10	1	6	0.0336720826121	6.27355971019	-6.94133847812	-8.10474060152
  11	1	6	0.0677635500019	-8.43541129915	-5.70804964055	-7.29098595782
  12	1	6	0.0677635500019	8.25267302945	-7.1697661748	-6.65842319483
  13	1	5	0.0673240829995	-7.34681583061	7.40769812142	7.77895727564
  14	1	5	0.0673240829995	-6.20058553743	8.51859246767	6.95693142784
  15	1	5	0.0673240829995	-7.90004588402	8.26771606163	6.37159788909
  16	1	1	-0.323288702324	7.45659167358	-3.63503870389	6.30538221424
  17	1	3	-0.261204888205	-8.03537342404	-3.35200421285	6.3173431525
  18	1	2	0.00397478325971	8.78231380185	-5.60904584499	6.35976655393
  19	1	2	-0.0463342723211	-7.56037325745	-6.01850293265	5.78326550063
  20	1	4	0.285803391216	8.70801866671	-4.08638762573	6.13451000463
  21	1	2	-0.110142960479	-8.78487812131	-5.68408462152	7.93574054073
  22	1	2	0.012677052016	7.26023117612	-2.20869930855	6.32501495776
  23	1	6	0.0336720826121	-7.47865359349	-5.68415220258	4.75185914121
  24	1	6	0.0336720826121	-6.762632012	-5.52354565179	6.32626261549
  25	1	6	0.0336720826121	-7.40246568697	-7.0849997753	5.86622480365
  26	1	6	0.0677635500019	8.4495989493	-4.76922049352	8.32384384773
  27	1	6	0.0677635500019	-7.74736335916	-5.54609503699	8.25314260079
  28	1	5	0.0673240829995	6.19029530101	-2.04440301702	6.31772346095
  29	1	5	0.0673240829995	7.72600567232	-1.76285608284	5.4534256647
  30	1	5	0.0673240829995	7.72547990244	-1.73881766229	7.1837169629
  31	1	1	-0.323288702324	8.37981081515	-7.78084183513	2.32841457606
  32	1	3	-0.261204888205	-8.59796690744	-8.59754925033	4.30770367976
  33	1	2	0.00397478325971	7.35273790318	-6.89958853499	4.27483562111
  34	1	2	-0.0463342723211	7.21357691803	-5.53405456399	3.50277342566
  35	1	4	0.285803391216	8.46226657913	-7.78000192932	3.67754719523
  36	1	2	-0.110142960479	7.5865089592	-6.5250632325	5.78808140196
  37	1	2	0.012677052016	-8.56016451749	-8.6924999588	1.50091983403
  38	1	6	0.0336720826121	8.17109461402	-5.05344465294	3.26903768485
  39	1	6	0.0336720826121	6.73396075461	-5.63182239658	2.53589353561
  40	1	6	0.0336720826121	6.53540468378	-4.86314018133	4.0454613142
  41	1	6	0.0677635500019	6.64775026503	-6.07206630014	6.07478086753
  42	1	6	0.0677635500019	7.65105524313	-7.47430275203	6.29610325649
  43	1	5	0.0673240829995	-8.84770279873	7.98468085983	1.72697988379
  44	1	5	0.0673240829995	-7.48702515513	-8.56151407225	1.65831972125
  45	1	5	0.0673240829995	-8.81823377798	-8.48955511658	0.458155715621
  46	1	1	-0.323288702324	3.2403738322	8.10383709687	5.71911907155
  47	1	3	-0.261204888205	4.49552607295	-7.87195809521	6.40553292239
  48	1	2	0.00397478325971	5.38935928739	8.60097818577	4.52082589205
  49	1	2	-0.0463342723211	6.43718625546	7.77918747822	5.32517508301
  50	1	4	0.285803391216	4.3672888037	-8.8393530516	5.65879183769
  51	1	2	-0.110142960479	5.93030952316	-7.63446230765	3.99588890544
  52	1	2	0.012677052016	1.97952387741	8.64569163611	6.24547236157
  53	1	6	0.0336720826121	5.92022576194	6.90312811393	5.72002278237
  54	1	6	0.0336720826121	7.31771976348	7.43372727101	4.78964161077
  55	1	6	0.0336720826121	6.79674303457	8.33334578932	6.18727751823
  56	1	6	0.0677635500019	5.80581174986	-7.57189218938	2.92270982621
  57	1	6	0.0677635500019	5.1722567948	-6.90371013149	4.27554801804
  58	1	5	0.0673240829995	1.47893868256	-8.45025938368	5.48120534417
  59	1	5	0.0673240829995	2.12774679607	-8.43751855316	7.13827887238
  60	1	5	0.0673240829995	1.30689848964	7.82761650752	6.50413461099
  61	1	1	-0.323288702324	7.41799794392	6.18844177275	1.97448226735
  62	1	3	-0.261204888205	6.1472345469	5.38691944631	3.62772297592
  63	1	2	0.00397478325971	5.10269687507	7.00278298849	2.15904245767
  64	1	2	-0.0463342723211	5.61841741641	8.10786048182	1.18897771389
  65	1	4	0.285803391216	6.25051231279	6.08972977774	2.65262660727
  66	1	2	-0.110142960479	4.56270977667	7.65280470829	3.47925919423
  67	1	2	0.012677052016	8.50620325654	5.4534632335	2.57092505935
  68	1	6	0.0336720826121	4.93216288012	-8.76157696467	0.99434631384
  69	1	6	0.0336720826121	6.41785010478	8.55212540564	1.74969273708
  70	1	6	0.0336720826121	6.05107015479	7.77206869056	0.238101840013
  71	1	6	0.0677635500019	3.64853737038	8.15395788047	3.19825213066
  72	1	6	0.0677635500019	4.22733660942	6.78029135636	4.04630091736
  73	1	5	0.0673240829995	8.1851648727	4.43195028031	2.74014057903
  74	1	5	0.0673240829995	8.74103931336	5.91566028251	3.53435988824
  75	1	5	0.0673240829995	-8.34202056327	5.44515095532	1.89916476979
  76	1	1	-0.323288702324	1.36824040251	5.0949120296	2.82698794379
  77	1	3	-0.261204888205	1.24422598393	7.32729253541	3.03465760561
  78	1	2	0.00397478325971	2.47098874815	6.49014787502	1.12560234801
  79	1	2	-0.0463342723211	1.76385399635	5.41698983956	0.23778701496
  80	1	4	0.285803391216	1.66162634317	6.36862405823	2.43107180618
  81	1	2	-0.110142960479	3.97647194837	6.03199017444	1.50697644786
  82	1	2	0.012677052016	0.39017285636	4.92087465714	3.8742855157
  83	1	6	0.0336720826121	1.94349524957	5.45608859425	-0.835937334238
  84	1	6	0.0336720826121	2.00187021414	4.40849087914	0.576944711984
  85	1	6	0.0336720826121	0.686615704284	5.54217846631	0.39279943904
  86	1	6	0.0677635500019	4.41765174394	5.61709246101	0.609285538802
  87	1	6	0.0677635500019	3.88971029514	5.15341301732	2.16581901427
  88	1	5	0.0673240829995	0.733187748995	5.44108153557	4.77128586746
  89	1	5	0.0673240829995	0.279643857586	3.85912845032	4.10818371742
  90	1	5	0.0673240829995	-0.570403433778	5.35369041415	3.56838802153
  91	1	1	-0.323288702324	2.91318380399	-7.18902611859	-0.287161828488
  92	1	3	-0.261204888205	1.76757420319	-7.48175066376	-2.1817432458
  93	1	2	0.00397478325971	1.25473041671	8.72901630573	-0.298070835938
  94	1	2	-0.0463342723211	0.56470062663	7.92184224156	-1.4437741776
  95	1	4	0.285803391216	1.90620408112	-7.73964172477	-0.998054799672
  96	1	2	-0.110142960479	2.46022899093	7.93915880063	0.431452127792
  97	1	2	0.012677052016	3.81342908919	-6.14973813054	-0.744630342702
  98	1	6	0.0336720826121	0.0691648688991	7.01766900169	-1.10485533444
  99	1	6	0.0336720826121	-0.207575149865	8.48198913532	-1.99752169054
 100	1	6	0.0336720826121	1.35022169211	7.6579969551	-2.14547180422
 101	1	6	0.0677635500019	2.78976288733	8.58780985482	1.22351703408
 102	1	6	0.0677635500019	3.28206265146	7.97182083464	-0.292282563356
 103	1	5	0.0673240829995	3.31004545174	-5.25892118552	-1.13127578893
 104	1	5	0.0673240829995	4.48642433386	-6.53781550857	-1.50430991462
 105	1	5	0.0673240829995	4.38651850005	-5.86818206846	0.139844276534
 106	1	1	-0.323288702324	-0.600799222267	-6.10832628162	-0.419895286603
 107	1	3	-0.261204888205	1.10669015136	-5.21074202391	0.719367319569
 108	1	2	0.00397478325971	0.179422309374	-7.26252895173	1.60859291629
 109	1	2	-0.0463342723211	1.45308029093	-7.19207189366	2.51654842753
 110	1	4	0.285803391216	0.212840569757	-6.02486313135	0.67201220422
 111	1	2	-0.110142960479	0.0927134594906	-8.55226251338	0.688638974078
 112	1	2	0.012677052016	-0.358974401551	-5.11136507635	-1.44096721476
 113	1	6	0.0336720826121	1.61497241947	-8.0018802961	3.21395664293
 114	1	6	0.0336720826121	2.30961807674	-7.14983002495	1.88016295072
 115	1	6	0.0336720826121	1.53118904827	-6.29292643788	3.11067152854
 116	1	6	0.0677635500019	-0.826993925253	-8.40665773177	0.107074698898
 117	1	6	0.0677635500019	-0.131509099328	8.25095097344	1.2549413351
 118	1	5	0.0673240829995	-0.19157688358	-4.18465399588	-0.907993121487
 119	1	5	0.0673240829995	-1.22547958689	-4.96817356546	-2.09256010134
 120	1	5	0.0673240829995	0.557757647335	-5.35041449112	-1.99236481103
 121	1	1	-0.323288702324	-2.13665813234	-7.72525264661	5.17095623271
 122	1	3	-0.261204888205	-2.5143907486	-5.55289389861	5.53206594308
 123	1	2	0.00397478325971	-1.57509759642	-6.06636894491	3.36980687364
 124	1	2	-0.0463342723211	-0.498686427525	-4.93357871802	3.6268107024
 125	1	4	0.285803391216	-2.10732564434	-6.42490395659	4.78300562
 126	1	2	-0.110142960479	-1.10625151366	-7.33871941124	2.5303260793
 127	1	2	0.012677052016	-2.56320055972	-8.00613545174	6.53860393474
 128	1	6	0.0336720826121	-0.930326271649	-3.98636462222	3.9708300774
 129	1	6	0.0336720826121	0.212856771442	-5.25835564961	4.37800866111
 130	1	6	0.0336720826121	0.0904134348972	-4.62720833616	2.77230331886
 131	1	6	0.0677635500019	-1.94098736353	-7.65096435726	1.90098400428
 132	1	6	0.0677635500019	-1.01952557241	-8.2196540975	3.17667259094
 133	1	5	0.0673240829995	-3.07695047917	8.73099681719	6.59329726662
 134	1	5	0.0673240829995	-3.30072059517	-7.28124807194	6.88495577384
 135	1	5	0.0673240829995	-1.70423381216	-7.96279747465	7.22077070666
 136	1	1	-0.323288702324	-3.5740323685	-6.28321675238	-0.0445247829365
 137	1	3	-0.261204888205	-5.59112078533	-6.97903603925	0.665947692214
 138	1	2	0.00397478325971	-4.01460964561	-6.13886223563	2.29106902981
 139	1	2	-0.0463342723211	-4.99405330434	-6.28237282611	3.48435714558
 140	1	4	0.285803391216	-4.56549320881	-6.34989965009	0.86608402139
 141	1	2	-0.110142960479	-2.69644707483	-5.31788547048	2.56619452676
 142	1	2	0.012677052016	-3.73249608315	-6.13815386026	-1.48047226729
 143	1	6	0.0336720826121	-5.91384420791	-5.73186452987	3.29200254547
 144	1	6	0.0336720826121	-5.21044127779	-7.32081928246	3.75378542644
 145	1	6	0.0336720826121	-4.56941000525	-5.85483406345	4.38083435087
 146	1	6	0.0677635500019	-2.95746473274	-4.42427462832	3.13765858154
 147	1	6	0.0677635500019	-2.26146305529	-4.94530167224	1.636293538
 148	1	5	0.0673240829995	-3.75548140724	-5.07002884712	-1.68396222382
 149	1	5	0.0673240829995	-4.64161290237	-6.56652605915	-1.91019407511
 150	1	5	0.0673240829995	-2.83695368898	-6.5895820136	-1.92841677942
 151	2	1	-0.323288702324	-0.161209648378	1.50793752996	-0.199331247545
 152	2	3	-0.261204888205	-1.58015833657	0.116575435116	0.881117771906
 153	2	2	0.00397478325971	0.538895209758	-0.760882810101	0.187165820327
 154	2	2	-0.0463342723211	0.399316161383	-1.22263489236	-1.26289059826
 155	2	4	0.285803391216	-0.556474797184	0.297400647185	0.275710943578
 156	2	2	-0.110142960479	0.198529103021	-1.97350957087	1.10103434226
 157	2	2	0.012677052016	-0.438368062434	2.62840562875	0.666721824519
 158	2	6	0.0336720826121	0.643936681993	-0.434539479226	-1.98229402908
 159	2	6	0.0336720826121	1.02992290895	-2.08015815534	-1.38899201638
 160	2	6	0.0336720826121	-0.605134125373	-1.56904655864	-1.47485082854
 161	2	6	0.0677635500019	0.17817742511	-1.74097743752	2.17136991876
 162	2	6	0.0677635500019	-0.758438910653	-2.42099648792	0.815368207133
 163	2	5	0.0673240829995	0.465984674771	2.83842729571	1.23472046177
 164	2	5	0.0673240829995	-1.22186505571	2.36726617712	1.38097845017
 165	2	5	0.0673240829995	-0.708558995327	3.5125527746	0.084793737353
 166	2	1	-0.323288702324	3.84413407588	-3.17170386755	1.79143780909
 167	2	3	-0.261204888205	2.91469078642	-1.50334625649	2.98992261334
 168	2	2	0.00397478325971	3.22663158613	-1.14565529576	0.595361079338
 169	2	2	-0.0463342723211	3.34913409284	-2.01598351048	-0.655671367858
 170	2	4	0.285803391216	3.18753487471	-1.98016219339	1.90772106204
 171	2	2	-0.110142960479	1.98235397911	-0.170837366543	0.442478572563
 172	2	2	0.012677052016	3.63374420664	-4.17597959419	2.8173210198
 173	2	6	0.0336720826121	2.94752454911	-1.42318348308	-1.47011294914
 174	2	6	0.0336720826121	4.3676221632	-2.19271636956	-0.945345948285
 175	2	6	0.0336720826121	2.84671328217	-2.98640534653	-0.559795834378
 176	2	6	0.0677635500019	2.20358071716	0.491854796631	-0.402573716884
 177	2	6	0.0677635500019	1.90084785466	0.447783969724	1.33624091698
 178	2	5	0.0673240829995	3.86908194147	-3.76773498412	3.79962389727
 179	2	5	0.0673240829995	4.26645458661	-5.05120930237	2.65754331631
 180	2	5	0.0673240829995	2.5893985744	-4.48782611827	2.76859870524
 181	2	1	-0.323288702324	5.25380592582	2.59327310851	-1.4869793599
 182	2	3	-0.261204888205	3.76711654548	2.2466882038	0.161887883557
 183	2	2	0.00397478325971	5.4050700323	0.484243142432	-0.255695562772
 184	2	2	-0.0463342723211	5.78857536595	-0.192138843054	-1.61523822406
 185	2	4	0.285803391216	4.6933663582	1.84582151179	-0.494448537322
 186	2	2	-0.110142960479	4.58799336482	-0.387952021825	0.76582768001
 187	2	2	0.012677052016	4.68551741351	3.89622588389	-1.81795421114
 188	2	6	0.0336720826121	4.97094588905	-0.433128367759	-2.28863240084
 189	2	6	0.0336720826121	6.53335935298	0.412474193248	-2.15193951096
 190	2	6	0.0336720826121	6.24772631501	-1.15104042999	-1.4168610725
 191	2	6	0.0677635500019	4.43513204757	0.213095544309	1.65987507991
 192	2	6	0.0677635500019	5.3085102384	-1.17503372485	0.963823991346
 193	2	5	0.0673240829995	3.59440590139	3.84252751559	-1.87587411154
 194	2	5	0.0673240829995	5.05363406913	4.17820845969	-2.80143838565
 195	2	5	0.0673240829995	4.99699830856	4.66537185429	-1.10584233394
 196	2	1	-0.323288702324	5.93340829774	1.84796584274	3.88170615254
 197	2	3	-0.261204888205	5.7524155298	2.86469068841	1.89485881128
 198	2	2	0.00397478325971	7.11762066471	0.86509629865	1.92927420803
 199	2	2	-0.0463342723211	7.0864900169	-0.518298416218	2.65766847576
 200	2	4	0.285803391216	6.10350332656	1.88647366538	2.52829139649
 201	2	2	-0.110142960479	6.87788810465	0.636008701827	0.364792848635
 202	2	2	0.012677052016	4.84818685184	2.60478230708	4.55291061959
 203	2	6	0.0336720826121	7.65690615271	-0.519914092651	3.57918866644
 204	2	6	0.0336720826121	6.07472797368	-0.72712039115	2.97841578907
 205	2	6	0.0336720826121	7.47833468486	-1.35230021529	2.05053448657
 206	2	6	0.0677635500019	7.37142283894	1.37814581327	-0.248737998989
 207	2	6	0.0677635500019	7.43814946378	-0.288941357891	0.155355486408
 208	2	5	0.0673240829995	4.54572617397	3.50342588419	4.00940765606
 209	2	5	0.0673240829995	5.13019767735	2.90286081128	5.56996999826
 210	2	5	0.0673240829995	3.96570090605	1.97084266138	4.6519489999
 211	2	1	-0.323288702324	-7.55337590578	-0.828606557999	2.83557972056
 212	2	3	-0.261204888205	-7.43013263905	-0.829001947082	0.592030530168
 213	2	2	0.00397478325971	-7.82265856461	1.30119708411	1.67034191583
 214	2	2	-0.0463342723211	-7.85150578319	2.00354309888	0.283149853148
 215	2	4	0.285803391216	-7.52137060117	-0.202037067782	1.64352092299
 216	2	2	-0.110142960479	8.49815320349	1.48895346526	2.37261896231
 217	2	2	0.012677052016	-7.17515836375	-2.23119104023	2.88842905946
 218	2	6	0.0336720826121	-8.39670584062	2.94910500357	0.371004631121
 219	2	6	0.0336720826121	-6.88706217454	2.2591716388	-0.140741137599
 220	2	6	0.0336720826121	-8.27011994945	1.3643214112	-0.481683152422
 221	2	6	0.0677635500019	8.64232049318	1.28679572382	3.44127368576
 222	2	6	0.0677635500019	8.35386541723	2.54696359461	2.32248742463
 223	2	5	0.0673240829995	-7.798496799	-2.84574229338	2.22823354679
 224	2	5	0.0673240829995	-7.24184637917	-2.59925257071	3.91130843366
 225	2	5	0.0673240829995	-6.14282502782	-2.30236914376	2.55268493683
 226	2	1	-0.323288702324	-6.32961068076	4.49123099451	1.05308868116
 227	2	3	-0.261204888205	-4.18925049779	3.94132954322	0.676054998764
 228	2	2	0.00397478325971	-5.41707014067	2.50023873607	2.17387766285
 229	2	2	-0.0463342723211	-4.84414512427	1.20899096337	1.53347946335
 230	2	4	0.285803391216	-5.25876810532	3.67304502789	1.18202341279
 231	2	2	-0.110142960479	-6.86386633761	2.14243625961	2.62055757252
 232	2	2	0.012677052016	-6.08962740572	5.72206413046	0.328038854832
 233	2	6	0.0336720826121	-5.3321261974	0.970777113182	0.585211377684
 234	2	6	0.0336720826121	-3.77756458761	1.30289458018	1.36272070894
 235	2	6	0.0336720826121	-4.99626411164	0.357976178136	2.20573098405
 236	2	6	0.0677635500019	-7.38428666901	3.05393992718	2.91129586214
 237	2	6	0.0677635500019	-6.70546605935	1.58479287275	3.5294397741
 238	2	5	0.0673240829995	-5.32907548835	6.29175392885	0.84771452111
 239	2	5	0.0673240829995	-6.99219183041	6.33039464459	0.256682003661
 240	2	5	0.0673240829995	-5.67854068932	5.48513758826	-0.648457325799
 241	2	1	-0.323288702324	-5.88222851454	5.73992935241	3.70739274456
 242	2	3	-0.261204888205	-3.63452667767	5.75738507757	3.33209430602
 243	2	2	0.00397478325971	-4.66535668964	3.92431160409	4.48188384915
 244	2	2	-0.0463342723211	-5.95542694929	3.7507565502	5.36735417366
 245	2	4	0.285803391216	-4.64268802594	5.23077629048	3.73854438594
 246	2	2	-0.110142960479	-4.44236235986	2.75946762693	3.40078864807
 247	2	2	0.012677052016	-6.12465597184	7.0955736979	3.38524682169
 248	2	6	0.0336720826121	-6.03886186222	4.5373435417	6.10114309427
 249	2	6	0.0336720826121	-6.91817448415	3.81252759443	4.84534103005
 250	2	6	0.0336720826121	-5.88143493206	2.86420171326	5.97834947478
 251	2	6	0.0677635500019	-4.27041272719	1.80572032496	3.91337720727
 252	2	6	0.0677635500019	-3.48512207994	2.97681768769	2.91390079566
 253	2	5	0.0673240829995	-5.61471442869	7.69323982114	4.13471360115
 254	2	5	0.0673240829995	-7.20396822595	7.19643251599	3.44938614218
 255	2	5	0.0673240829995	-5.79442361722	7.36310817917	2.38431153302
 256	2	1	-0.323288702324	-4.53835847326	5.30505052588	8.49197372098
 257	2	3	-0.261204888205	-4.67295298726	6.59685153131	6.65603590867
 258	2	2	0.00397478325971	-2.97283309877	4.86072999177	6.60608410037
 259	2	2	-0.0463342723211	-1.97503920983	6.00954070986	6.23031222761
 260	2	4	0.285803391216	-4.17161470858	5.63093905031	7.22338991485
 261	2	2	-0.110142960479	-3.38000305093	3.88413474417	5.39377679669
 262	2	2	0.012677052016	-5.61877788872	6.0564013584	-8.56414265111
 263	2	6	0.0336720826121	-2.3905365459	6.8469467085	5.65153113538
 264	2	6	0.0336720826121	-1.56019823481	6.42617773063	7.14976233554
 265	2	6	0.0336720826121	-1.11132623614	5.65084785157	5.71516165737
 266	2	6	0.0677635500019	-2.5317888517	3.82855355135	4.71453249075
 267	2	6	0.0677635500019	-3.51378841592	2.90652490677	5.83982731961
 268	2	5	0.0673240829995	-5.74153373422	5.77644864021	-7.51442057386
 269	2	5	0.0673240829995	-6.55708131596	5.82057080953	8.63329817803
 270	2	5	0.0673240829995	-5.42469988777	7.13359695319	-8.64606743258
 271	2	1	-0.323288702324	-0.2724457665	1.8144314868	5.59162205373
 272	2	3	-0.261204888205	-2.12088798878	1.137668521	6.70530583576
 273	2	2	0.00397478325971	-0.939358047123	3.0786568494	7.53571521122
 274	2	2	-0.0463342723211	0.381548538794	3.81121041448	7.25888928909
 275	2	4	0.285803391216	-1.21718524524	1.91024384028	6.56824254711
 276	2	2	-0.110142960479	-2.27098942398	3.94236477721	7.70228874839
 277	2	2	0.012677052016	-0.45246884695	0.928166584154	4.46407149198
 278	2	6	0.0336720826121	1.20882394433	3.08730970352	7.32038767278
 279	2	6	0.0336720826121	0.405333436067	4.19294160105	6.27417735633
 280	2	6	0.0336720826121	0.538278452838	4.64881903911	7.94652720169
 281	2	6	0.0677635500019	-2.08212214404	4.57466174668	8.56216332275
 282	2	6	0.0677635500019	-3.04822992415	3.23019991472	7.98770029659
 283	2	5	0.0673240829995	-0.299601390944	-0.119500838414	4.73108354135
 284	2	5	0.0673240829995	0.306048945914	1.22253899235	3.7375378685
 285	2	5	0.0673240829995	-1.44796333469	1.05035399301	4.02963905689
 286	2	1	-0.323288702324	-0.312823575305	0.684474346483	-6.55143088059
 287	2	3	-0.261204888205	1.40620156033	2.12764216785	-6.24460853225
 288	2	2	0.00397478325971	0.602113125348	1.63528331602	-8.48148937635
 289	2	2	-0.0463342723211	0.262264212695	0.262136815187	8.58914380646
 290	2	4	0.285803391216	0.708032035365	1.45620745917	-6.97423975177
 291	2	2	-0.110142960479	-0.621193311483	2.59674050248	-8.71296714842
 292	2	2	0.012677052016	-0.646905404426	0.592381162435	-5.1744683148
 293	2	6	0.0336720826121	-0.802140561341	0.19176158281	8.73847803257
 294	2	6	0.0336720826121	0.439105595351	0.135516471318	7.51424386252
 295	2	6	0.0336720826121	0.704854813229	-0.573069865115	-8.56408530646
 296	2	6	0.0677635500019	-0.413930830693	3.50843570062	-8.15015321234
 297	2	6	0.0677635500019	-1.51085320358	2.19116295829	-8.24280560027
 298	2	5	0.0673240829995	-1.72411133253	0.443455820784	-5.13448248891
 299	2	5	0.0673240829995	-0.403425735793	1.54061824851	-4.69737416434
 300	2	5	0.0673240829995	-0.122101243931	-0.254205402742	-4.72959213566
 301	3	1	-0.323288702324	3.34537273176	-4.15135502976	7.38031582567
 302	3	3	-0.261204888205	2.05993525308	-4.43830616774	5.59054686062
 303	3	2	0.00397478325971	1.01023306929	-4.53740290497	7.77336266364
 304	3	2	-0.0463342723211	0.895581038602	-3.19194737356	8.45997868779
 305	3	4	0.285803391216	2.19043081062	-4.48844997168	6.8046675381
 306	3	2	-0.110142960479	-0.248953584077	-4.75089108603	6.95654589126
 307	3	2	0.012677052016	4.56462994941	-4.42766283295	6.67840079684
 308	3	6	0.0336720826121	0.790500569571	-2.4348269913	7.67916713694
 309	3	6	0.0336720826121	-0.00214080065041	-3.19499719576	-8.62263345352
 310	3	6	0.0336720826121	1.77479181812	-3.00865233395	-8.61674947148
 311	3	6	0.0677635500019	-1.12452208479	-4.33558178217	7.44781417585
 312	3	6	0.0677635500019	-0.381809100193	-5.81637974562	6.78565015615
 313	3	5	0.0673240829995	4.7490884662	-3.78047557481	5.80756365173
 314	3	5	0.0673240829995	4.59309383639	-5.48733330927	6.41138232273
 315	3	5	0.0673240829995	5.3071724606	-4.23588652209	7.43531567554
 316	3	1	-0.323288702324	-0.41977942959	-4.19635779405	-5.96041766472
 317	3	3	-0.261204888205	1.75415425959	-4.64371805488	-6.28425531265
 318	3	2	0.00397478325971	0.22534695527	-5.91997449077	-7.61947843589
 319	3	2	-0.0463342723211	-1.31356793229	-5.86088488246	-7.9389501967
 320	3	4	0.285803391216	0.603381415608	-4.88301458854	-6.53983010299
 321	3	2	-0.110142960479	1.22557599117	-5.65898275964	8.83544982061
 322	3	2	0.012677052016	-0.132481537408	-3.18017220964	-4.95035271017
 323	3	6	0.0336720826121	-1.60728224131	-6.29051330675	8.80180299018
 324	3	6	0.0336720826121	-1.87066267245	-6.39351297838	-7.17108657866
 325	3	6	0.0336720826121	-1.70752534368	-4.84145641055	-7.93290703221
 326	3	6	0.0677635500019	1.28937801154	-6.56654440449	8.24422363346
 327	3	6	0.0677635500019	2.25521616554	-5.49808153333	-8.51391919507
 328	3	5	0.0673240829995	0.0768319136088	-2.23119748763	-5.44009490617
 329	3	5	0.0673240829995	0.749663376003	-3.41075582999	-4.34871298012
 330	3	5	0.0673240829995	-0.997605282609	-3.09923076138	-4.28658406575
 331	3	1	-0.323288702324	-1.55076546082	8.83417555009	-7.75635415546
 332	3	3	-0.261204888205	-1.58970814234	7.64396712775	-5.84353792996
 333	3	2	0.00397478325971	0.0892741048352	-8.32807232125	-6.00276237107
 334	3	2	-0.0463342723211	-0.375823989312	-7.47715891053	-4.78887641476
 335	3	4	0.285803391216	-1.11866411027	8.58269554632	-6.50622909369
 336	3	2	-0.110142960479	0.690573176638	-7.38335579594	-7.15353766726
 337	3	2	0.012677052016	-2.88943344082	8.39335978142	-8.0973392851
 338	3	6	0.0336720826121	-0.851295367166	-8.05783972623	-3.99393365975
 339	3	6	0.0336720826121	0.41091189668	-6.88747160692	-4.30303461611
 340	3	6	0.0336720826121	-1.14012354709	-6.82853913614	-5.1826298072
 341	3	6	0.0677635500019	0.673268513755	-7.99022727832	-8.05513169038
 342	3	6	0.0677635500019	1.72498403867	-7.2546974898	-6.87559771875
 343	3	5	0.0673240829995	-3.17642914734	8.64274375691	8.58887139711
 344	3	5	0.0673240829995	-3.57422010012	-8.79838991371	-7.42027284113
 345	3	5	0.0673240829995	-2.97398578269	7.31430838208	-7.9741995747
 346	3	1	-0.323288702324	0.923959254984	5.61610170698	-4.23461518596
 347	3	3	-0.261204888205	0.47367087868	4.95243758924	-6.34203581918
 348	3	2	0.00397478325971	1.64508273765	7.0526339102	-6.1061218099
 349	3	2	-0.0463342723211	1.53591823125	7.18795336604	-7.66495190852
 350	3	4	0.285803391216	0.826843332528	5.83700693378	-5.58611257973
 351	3	2	-0.110142960479	1.16115947504	8.37672932157	-5.35210980088
 352	3	2	0.012677052016	0.581000402604	4.28874633177	-3.7633962509
 353	3	6	0.0336720826121	2.02926418253	6.40974592416	-8.2512755506
 354	3	6	0.0336720826121	0.508191657887	7.20523386469	-8.01796676303
 355	3	6	0.0336720826121	1.98530491107	8.12518320221	-7.96700839513
 356	3	6	0.0677635500019	0.743342326923	8.00247218354	-4.41178461017
 357	3	6	0.0677635500019	1.99453707557	-8.69782955752	-5.0244775368
 358	3	5	0.0673240829995	1.36562933198	3.59669352302	-4.06162650192
 359	3	5	0.0673240829995	-0.35209869989	4.02815218362	-4.26553070351
 360	3	5	0.0673240829995	0.44177457784	4.23452790271	-2.6754188173
 361	3	1	-0.323288702324	4.52233293262	5.77853278311	-8.2069740206
 362	3	3	-0.261204888205	4.40403490849	7.99798123739	-8.55412531235
 363	3	2	0.00397478325971	4.43818405128	7.22799769059	-6.25291595441
 364	3	2	-0.0463342723211	4.4875818747	8.7978393704	-6.0260661377
 365	3	4	0.285803391216	4.51129437983	7.05381586584	-7.7751729073
 366	3	2	-0.110142960479	3.10138948651	6.64301492309	-5.65288831798
 367	3	2	0.012677052016	4.44425198556	5.61284899288	8.0640977745
 368	3	6	0.0336720826121	3.73106039622	-8.36698216437	-6.61486577636
 369	3	6	0.0336720826121	4.2694423496	-8.61568649688	-5.00593286558
 370	3	6	0.0336720826121	5.43343541122	-8.42882136103	-6.31928431005
 371	3	6	0.0677635500019	3.17475807194	5.55169497978	-5.78136322468
 372	3	6	0.0677635500019	3.14423104464	6.80851214111	-4.57041622886
 373	3	5	0.0673240829995	5.25135572181	6.2044854125	7.62093738388
 374	3	5	0.0673240829995	3.47001417952	5.99436204519	7.73948597616
 375	3	5	0.0673240829995	4.55106816591	4.56041102817	7.80935327925
 376	3	1	-0.323288702324	6.63033398154	-8.70462514344	-4.14173772003
 377	3	3	-0.261204888205	5.67796211943	7.38979540491	-2.84163350799
 378	3	2	0.00397478325971	6.81553756567	6.76836070764	-4.88481524543
 379	3	2	-0.0463342723211	7.67297895834	7.31722334727	-6.05917468042
 380	3	4	0.285803391216	6.32597228771	7.7369812103	-3.83203447986
 381	3	2	-0.110142960479	5.5094152681	6.22791145925	-5.53738700636
 382	3	2	0.012677052016	6.3840745582	-7.67379484498	-3.20430797151
 383	3	6	0.0336720826121	7.18183760601	8.0177951306	-6.72126843328
 384	3	6	0.0336720826121	8.54274357756	7.83003682844	-5.66823434621
 385	3	6	0.0336720826121	7.9580489031	6.48673892645	-6.71258947675
 386	3	6	0.0677635500019	5.75722099317	5.40960271217	-6.22337017382
 387	3	6	0.0677635500019	5.0497113408	5.71287965931	-4.69010223279
 388	3	5	0.0673240829995	5.42299282185	-7.85653192326	-2.71905854723
 389	3	5	0.0673240829995	6.32632265665	-6.77143530837	-3.80799970399
 390	3	5	0.0673240829995	7.22349690662	-7.66960525172	-2.4969827685
 391	3	1	-0.323288702324	-8.32013734077	3.52983496535	-3.50208671422
 392	3	3	-0.261204888205	-8.48608460085	4.72010565399	-1.59929276304
 393	3	2	0.00397478325971	-8.52091334017	5.85055922555	-3.72324869413
 394	3	2	-0.0463342723211	-7.70346529482	5.66163757753	-5.05512921991
 395	3	4	0.285803391216	-8.23401455065	4.67350259477	-2.78612110839
 396	3	2	-0.110142960479	7.62821156297	5.63359102773	-4.11528964475
 397	3	2	0.012677052016	-8.82158636428	2.3433544287	-2.8742811433
 398	3	6	0.0336720826121	-7.44585435583	6.59593432367	-5.53902525589
 399	3	6	0.0336720826121	-6.80139975267	5.05950961985	-4.95028013199
 400	3	6	0.0336720826121	-8.27545980443	5.11437910835	-5.79163915682
 401	3	6	0.0677635500019	7.07208668728	5.21834208572	-3.2575007495
 402	3	6	0.0677635500019	7.60647343193	4.78286452347	-4.78773503759
 403	3	5	0.0673240829995	8.1093637387	1.91555186054	-3.52135134249
 404	3	5	0.0673240829995	8.4408275106	2.58414989362	-1.90229792757
 405	3	5	0.0673240829995	-7.99525031505	1.64592821849	-2.75097954417
 406	3	1	-0.323288702324	-6.0580987271	8.6744794592	-5.27567746632
 407	3	3	-0.261204888205	-7.86233156772	-7.97542422031	-4.42841761647
 408	3	2	0.00397478325971	-6.86352902745	8.00910323953	-3.07068639933
 409	3	2	-0.0463342723211	-6.98866917677	-8.64842550105	-1.91974076417
 410	3	4	0.285803391216	-6.97706798972	-8.78003138775	-4.30367955099
 411	3	2	-0.110142960479	-8.21311422118	7.18990486936	-2.9118929044
 412	3	2	0.012677052016	-6.48429316231	-8.69247499482	-6.61399592882
 413	3	6	0.0336720826121	-7.97922082158	-8.19202955118	-1.91996388574
 414	3	6	0.0336720826121	-6.8789643077	8.63288050831	-0.920373897588
 415	3	6	0.0336720826121	-6.30653056069	-7.82167505076	-2.09775197804
 416	3	6	0.0677635500019	8.68516302807	7.86471435967	-3.15762130427
 417	3	6	0.0677635500019	-8.34465542492	7.04247161087	-1.83161608741
 418	3	5	0.0673240829995	-6.67834872591	-7.63078384338	-6.75542414666
 419	3	5	0.0673240829995	-7.40416852376	8.447656601	-6.77515915844
 420	3	5	0.0673240829995	-5.73068505088	8.71962195534	-7.33775693405
 421	3	1	-0.323288702324	-2.74592243573	7.27512646372	-0.628095825579