read using pysimm.system.read_mol

12 atoms
12 bonds
18 angles
24 dihedrals
0 impropers

2 atom types
2 bond types
2 angle types
1 dihedral types

-12.157717 12.157683 xlo xhi
-12.480917 12.480783 ylo yhi
-10.000108 10.000092 zlo zhi

Masses

   1	12.01	# ca
   2	1.008	# ha

Pair Coeffs

   1	0.086	3.39966950842	# ca
   2	0.015	2.59964245953	# ha

Bond Coeffs

   1	478.4	1.387	# ca,ca
   2	344.3	1.087	# ca,ha

Angle Coeffs

   1	67.18	119.97	# ca,ca,ca
   2	48.46	120.01	# ca,ca,ha

Dihedral Coeffs

   1	3.625	-1	2	# X,ca,ca,X

Atoms

   1	1	1	-0.0836440063793	-1.21311666667	-0.688416666667	-8.33333333333e-06
   2	1	1	-0.0836440063793	-1.20281666667	0.706383333333	9.16666666667e-05
   3	1	1	-0.0836440063793	-0.0103166666667	-1.39481666667	-8.33333333333e-06
   4	1	1	-0.0836440063793	0.0103833333333	1.39478333333	-0.000108333333333
   5	1	1	-0.0836440063793	1.20278333333	-0.706316666667	-8.33333333333e-06
   6	1	1	-0.0836440063793	1.21308333333	0.688383333333	-8.33333333333e-06
   7	1	2	0.0836440063793	-2.15771666667	-1.22441666667	-8.33333333333e-06
   8	1	2	0.0836440063793	-2.13931666667	1.25638333333	9.16666666667e-05
   9	1	2	0.0836440063793	-0.0184166666667	-2.48091666667	-0.000108333333333
  10	1	2	0.0836440063793	0.0183833333333	2.48078333333	-8.33333333333e-06
  11	1	2	0.0836440063793	2.13938333333	-1.25631666667	9.16666666667e-05
  12	1	2	0.0836440063793	2.15768333333	1.22448333333	-8.33333333333e-06

Velocities

   1	0.0	0.0	0
   2	0.0	0.0	0
   3	0.0	0.0	0
   4	0.0	0.0	0
   5	0.0	0.0	0
   6	0.0	0.0	0
   7	0.0	0.0	0
   8	0.0	0.0	0
   9	0.0	0.0	0
  10	0.0	0.0	0
  11	0.0	0.0	0
  12	0.0	0.0	0

Bonds

   1	1	1	2
   2	1	1	3
   3	2	1	7
   4	1	2	4
   5	2	2	8
   6	1	3	5
   7	2	3	9
   8	1	4	6
   9	2	4	10
  10	1	5	6
  11	2	5	11
  12	2	6	12

Angles

   1	1	2	1	3
   2	2	2	1	7
   3	2	3	1	7
   4	1	1	2	4
   5	2	1	2	8
   6	2	4	2	8
   7	1	1	3	5
   8	2	1	3	9
   9	2	5	3	9
  10	2	6	4	10
  11	1	6	4	2
  12	2	10	4	2
  13	2	6	5	11
  14	1	6	5	3
  15	2	11	5	3
  16	1	4	6	5
  17	2	4	6	12
  18	2	5	6	12

Dihedrals

   1	1	3	1	2	4
   2	1	3	1	2	8
   3	1	7	1	2	4
   4	1	7	1	2	8
   5	1	2	1	3	5
   6	1	2	1	3	9
   7	1	7	1	3	5
   8	1	7	1	3	9
   9	1	1	2	4	6
  10	1	1	2	4	10
  11	1	8	2	4	6
  12	1	8	2	4	10
  13	1	1	3	5	6
  14	1	1	3	5	11
  15	1	9	3	5	6
  16	1	9	3	5	11
  17	1	10	4	6	5
  18	1	10	4	6	12
  19	1	2	4	6	5
  20	1	2	4	6	12
  21	1	11	5	6	4
  22	1	11	5	6	12
  23	1	3	5	6	4
  24	1	3	5	6	12

