Created on Sun Oct 30 10:44:18 2016

424 atoms
512 bonds
912 angles
960 dihedrals
192 impropers

5 atom types
5 bond types
4 angle types
2 dihedral types
1 improper types

0.000000 25.832000 xlo xhi
0.000000 25.832000 ylo yhi
0.000000 25.832000 zlo zhi

Masses

   1	65.38	# Zn
   2	15.9994	# O_3
   3	15.9994	# O_R
   4	12.0107	# C_R
   5	1.00794	# H_

Pair Coeffs

   1	0.055	4.04468	# Zn
   2	0.0957	3.033154	# O_3
   3	0.0957	3.033154	# O_R
   4	0.0951	3.47299	# C_R
   5	0.0152	2.846421	# H_

Bond Coeffs

   1	350.0	1.98	# Zn,O_R
   2	525.0	1.35	# O_R,C_R
   3	525.0	1.39	# C_R,C_R
   4	350.0	1.02	# C_R,H_
   5	350.0	1.39	# C_R,C_R

Angle Coeffs

   1	50.0	120.0	# X,O_R,X
   2	50.0	120.0	# X,C_R,X
   3	50.0	109.471	# X,Zn,X
   4	50.0	104.51	# X,O_3,X

Dihedral Coeffs

   1	3.125	-1	2	# X,C_R,C_R,X
   2	3.125	-1	2	# X,O_R,C_R,X

Improper Coeffs

   1	20.0	0.0	# C_R,X,X,X

Atoms

   1	444	1	0	7.57859	5.33741	5.33741
   2	444	1	0	7.57859	18.25341	18.25341
   3	444	1	0	18.25341	20.49459	5.33741
   4	444	1	0	18.25341	7.57859	18.25341
   5	444	1	0	5.33741	7.57859	5.33741
   6	444	1	0	18.25341	5.33741	20.49459
   7	444	1	0	18.25341	18.25341	7.57859
   8	444	1	0	5.33741	5.33741	7.57859
   9	444	1	0	7.57859	20.49459	20.49459
  10	444	1	0	7.57859	7.57859	7.57859
  11	444	1	0	5.33741	18.25341	20.49459
  12	444	1	0	20.49459	18.25341	5.33741
  13	444	1	0	20.49459	7.57859	20.49459
  14	444	1	0	20.49459	5.33741	18.25341
  15	444	1	0	5.33741	20.49459	18.25341
  16	444	1	0	20.49459	20.49459	7.57859
  17	444	1	0	5.33741	7.57859	20.49459
  18	444	1	0	20.49459	18.25341	20.49459
  19	444	1	0	20.49459	5.33741	7.57859
  20	444	1	0	7.57859	5.33741	20.49459
  21	444	1	0	5.33741	18.25341	5.33741
  22	444	1	0	20.49459	7.57859	5.33741
  23	444	1	0	7.57859	7.57859	18.25341
  24	444	1	0	7.57859	18.25341	7.57859
  25	444	1	0	18.25341	5.33741	5.33741
  26	444	1	0	18.25341	18.25341	18.25341
  27	444	1	0	18.25341	20.49459	20.49459
  28	444	1	0	18.25341	7.57859	7.57859
  29	444	1	0	5.33741	20.49459	7.57859
  30	444	1	0	7.57859	20.49459	5.33741
  31	444	1	0	5.33741	5.33741	18.25341
  32	444	1	0	20.49459	20.49459	18.25341
  33	444	2	0	6.458	6.458	6.458
  34	444	2	0	19.374	19.374	6.458
  35	444	2	0	19.374	6.458	19.374
  36	444	2	0	6.458	19.374	19.374
  37	444	2	0	6.458	6.458	19.374
  38	444	2	0	19.374	19.374	19.374
  39	444	2	0	19.374	6.458	6.458
  40	444	2	0	6.458	19.374	6.458
  41	444	3	0	7.28127	5.63473	3.46149
  42	444	4	0	7.30787	5.60813	0.69488
  43	444	5	0	7.87618	5.03982	1.15727
  44	444	3	0	7.28127	18.55073	16.37749
  45	444	4	0	7.30787	18.52413	13.61088
  46	444	5	0	7.87618	17.95582	14.07327
  47	444	3	0	18.55073	20.19727	3.46149
  48	444	4	0	18.52413	20.22387	0.69488
  49	444	5	0	17.95582	20.79218	1.15727
  50	444	3	0	18.55073	7.28127	16.37749
  51	444	4	0	18.52413	7.30787	13.61088
  52	444	5	0	17.95582	7.87618	14.07327
  53	444	3	0	5.63473	7.28127	3.46149
  54	444	4	0	5.60813	7.30787	0.69488
  55	444	5	0	5.03982	7.87618	1.15727
  56	444	3	0	18.55073	5.63473	22.37051
  57	444	4	0	18.52413	5.60813	25.13712
  58	444	5	0	17.95582	5.03982	24.67473
  59	444	3	0	18.55073	18.55073	9.45451
  60	444	4	0	18.52413	18.52413	12.22112
  61	444	5	0	17.95582	17.95582	11.75873
  62	444	3	0	5.63473	5.63473	9.45451
  63	444	4	0	5.60813	5.60813	12.22112
  64	444	5	0	5.03982	5.03982	11.75873
  65	444	3	0	7.28127	20.19727	22.37051
  66	444	4	0	7.30787	20.22387	25.13712
  67	444	5	0	7.87618	20.79218	24.67473
  68	444	3	0	7.28127	7.28127	9.45451
  69	444	4	0	7.30787	7.30787	12.22112
  70	444	5	0	7.87618	7.87618	11.75873
  71	444	3	0	3.46149	7.28127	5.63473
  72	444	4	0	0.69488	7.30787	5.60813
  73	444	5	0	1.15727	7.87618	5.03982
  74	444	3	0	16.37749	7.28127	18.55073
  75	444	4	0	13.61088	7.30787	18.52413
  76	444	5	0	14.07327	7.87618	17.95582
  77	444	3	0	3.46149	18.55073	20.19727
  78	444	4	0	0.69488	18.52413	20.22387
  79	444	5	0	1.15727	17.95582	20.79218
  80	444	3	0	3.46149	5.63473	7.28127
  81	444	4	0	0.69488	5.60813	7.30787
  82	444	5	0	1.15727	5.03982	7.87618
  83	444	3	0	16.37749	18.55073	7.28127
  84	444	4	0	13.61088	18.52413	7.30787
  85	444	5	0	14.07327	17.95582	7.87618
  86	444	3	0	22.37051	18.55073	5.63473
  87	444	4	0	25.13712	18.52413	5.60813
  88	444	5	0	24.67473	17.95582	5.03982
  89	444	3	0	9.45451	18.55073	18.55073
  90	444	4	0	12.22112	18.52413	18.52413
  91	444	5	0	11.75873	17.95582	17.95582
  92	444	3	0	9.45451	5.63473	5.63473
  93	444	4	0	12.22112	5.60813	5.60813
  94	444	5	0	11.75873	5.03982	5.03982
  95	444	3	0	22.37051	7.28127	20.19727
  96	444	4	0	25.13712	7.30787	20.22387
  97	444	5	0	24.67473	7.87618	20.79218
  98	444	3	0	9.45451	7.28127	7.28127
  99	444	4	0	12.22112	7.30787	7.30787
 100	444	5	0	11.75873	7.87618	7.87618
 101	444	3	0	5.63473	3.46149	7.28127
 102	444	4	0	5.60813	0.69488	7.30787
 103	444	5	0	5.03982	1.15727	7.87618
 104	444	3	0	5.63473	16.37749	20.19727
 105	444	4	0	5.60813	13.61088	20.22387
 106	444	5	0	5.03982	14.07327	20.79218
 107	444	3	0	20.19727	3.46149	18.55073
 108	444	4	0	20.22387	0.69488	18.52413
 109	444	5	0	20.79218	1.15727	17.95582
 110	444	3	0	20.19727	16.37749	5.63473
 111	444	4	0	20.22387	13.61088	5.60813
 112	444	5	0	20.79218	14.07327	5.03982
 113	444	3	0	7.28127	3.46149	5.63473
 114	444	4	0	7.30787	0.69488	5.60813
 115	444	5	0	7.87618	1.15727	5.03982
 116	444	3	0	5.63473	22.37051	18.55073
 117	444	4	0	5.60813	25.13712	18.52413
 118	444	5	0	5.03982	24.67473	17.95582
 119	444	3	0	5.63473	9.45451	5.63473
 120	444	4	0	5.60813	12.22112	5.60813
 121	444	5	0	5.03982	11.75873	5.03982
 122	444	3	0	20.19727	22.37051	7.28127
 123	444	4	0	20.22387	25.13712	7.30787
 124	444	5	0	20.79218	24.67473	7.87618
 125	444	3	0	20.19727	9.45451	20.19727
 126	444	4	0	20.22387	12.22112	20.22387
 127	444	5	0	20.79218	11.75873	20.79218
 128	444	3	0	7.28127	9.45451	7.28127
 129	444	4	0	7.30787	12.22112	7.30787
 130	444	5	0	7.87618	11.75873	7.87618
 131	444	3	0	5.63473	7.28127	22.37051
 132	444	4	0	5.60813	7.30787	25.13712
 133	444	5	0	5.03982	7.87618	24.67473
 134	444	3	0	5.63473	20.19727	9.45451
 135	444	4	0	5.60813	20.22387	12.22112
 136	444	5	0	5.03982	20.79218	11.75873
 137	444	3	0	20.19727	18.55073	22.37051
 138	444	4	0	20.22387	18.52413	25.13712
 139	444	5	0	20.79218	17.95582	24.67473
 140	444	3	0	20.19727	5.63473	9.45451
 141	444	4	0	20.22387	5.60813	12.22112
 142	444	5	0	20.79218	5.03982	11.75873
 143	444	3	0	7.28127	5.63473	22.37051
 144	444	4	0	7.30787	5.60813	25.13712
 145	444	5	0	7.87618	5.03982	24.67473
 146	444	3	0	5.63473	18.55073	3.46149
 147	444	4	0	5.60813	18.52413	0.69488
 148	444	5	0	5.03982	17.95582	1.15727
 149	444	3	0	5.63473	5.63473	16.37749
 150	444	4	0	5.60813	5.60813	13.61088
 151	444	5	0	5.03982	5.03982	14.07327
 152	444	3	0	20.19727	7.28127	3.46149
 153	444	4	0	20.22387	7.30787	0.69488
 154	444	5	0	20.79218	7.87618	1.15727
 155	444	3	0	20.19727	20.19727	16.37749
 156	444	4	0	20.22387	20.22387	13.61088
 157	444	5	0	20.79218	20.79218	14.07327
 158	444	3	0	7.28127	7.28127	16.37749
 159	444	4	0	7.30787	7.30787	13.61088
 160	444	5	0	7.87618	7.87618	14.07327
 161	444	3	0	7.28127	3.46149	20.19727
 162	444	4	0	7.30787	0.69488	20.22387
 163	444	5	0	7.87618	1.15727	20.79218
 164	444	3	0	7.28127	16.37749	7.28127
 165	444	4	0	7.30787	13.61088	7.30787
 166	444	5	0	7.87618	14.07327	7.87618
 167	444	3	0	18.55073	3.46149	5.63473
 168	444	4	0	18.52413	0.69488	5.60813
 169	444	5	0	17.95582	1.15727	5.03982
 170	444	3	0	18.55073	16.37749	18.55073
 171	444	4	0	18.52413	13.61088	18.52413
 172	444	5	0	17.95582	14.07327	17.95582
 173	444	3	0	5.63473	16.37749	5.63473
 174	444	4	0	5.60813	13.61088	5.60813
 175	444	5	0	5.03982	14.07327	5.03982
 176	444	3	0	18.55073	22.37051	20.19727
 177	444	4	0	18.52413	25.13712	20.22387
 178	444	5	0	17.95582	24.67473	20.79218
 179	444	3	0	18.55073	9.45451	7.28127
 180	444	4	0	18.52413	12.22112	7.30787
 181	444	5	0	17.95582	11.75873	7.87618
 182	444	3	0	5.63473	22.37051	7.28127
 183	444	4	0	5.60813	25.13712	7.30787
 184	444	5	0	5.03982	24.67473	7.87618
 185	444	3	0	7.28127	22.37051	5.63473
 186	444	4	0	7.30787	25.13712	5.60813
 187	444	5	0	7.87618	24.67473	5.03982
 188	444	3	0	7.28127	9.45451	18.55073
 189	444	4	0	7.30787	12.22112	18.52413
 190	444	5	0	7.87618	11.75873	17.95582
 191	444	3	0	3.46149	5.63473	18.55073
 192	444	4	0	0.69488	5.60813	18.52413
 193	444	5	0	1.15727	5.03982	17.95582
 194	444	3	0	16.37749	5.63473	5.63473
 195	444	4	0	13.61088	5.60813	5.60813
 196	444	5	0	14.07327	5.03982	5.03982
 197	444	3	0	3.46149	20.19727	7.28127
 198	444	4	0	0.69488	20.22387	7.30787
 199	444	5	0	1.15727	20.79218	7.87618
 200	444	3	0	16.37749	20.19727	20.19727
 201	444	4	0	13.61088	20.22387	20.22387
 202	444	5	0	14.07327	20.79218	20.79218
 203	444	3	0	16.37749	7.28127	7.28127
 204	444	4	0	13.61088	7.30787	7.30787
 205	444	5	0	14.07327	7.87618	7.87618
 206	444	3	0	22.37051	5.63473	7.28127
 207	444	4	0	25.13712	5.60813	7.30787
 208	444	5	0	24.67473	5.03982	7.87618
 209	444	3	0	9.45451	5.63473	20.19727
 210	444	4	0	12.22112	5.60813	20.22387
 211	444	5	0	11.75873	5.03982	20.79218
 212	444	3	0	22.37051	20.19727	18.55073
 213	444	4	0	25.13712	20.22387	18.52413
 214	444	5	0	24.67473	20.79218	17.95582
 215	444	3	0	22.37051	7.28127	5.63473
 216	444	4	0	25.13712	7.30787	5.60813
 217	444	5	0	24.67473	7.87618	5.03982
 218	444	3	0	9.45451	20.19727	5.63473
 219	444	4	0	12.22112	20.22387	5.60813
 220	444	5	0	11.75873	20.79218	5.03982
 221	444	3	0	18.55073	20.19727	22.37051
 222	444	4	0	18.52413	20.22387	25.13712
 223	444	5	0	17.95582	20.79218	24.67473
 224	444	3	0	18.55073	7.28127	9.45451
 225	444	4	0	18.52413	7.30787	12.22112
 226	444	5	0	17.95582	7.87618	11.75873
 227	444	3	0	7.28127	18.55073	9.45451
 228	444	4	0	7.30787	18.52413	12.22112
 229	444	5	0	7.87618	17.95582	11.75873
 230	444	3	0	7.28127	20.19727	3.46149
 231	444	4	0	7.30787	20.22387	0.69488
 232	444	5	0	7.87618	20.79218	1.15727
 233	444	3	0	18.55073	5.63473	3.46149
 234	444	4	0	18.52413	5.60813	0.69488
 235	444	5	0	17.95582	5.03982	1.15727
 236	444	3	0	18.55073	18.55073	16.37749
 237	444	4	0	18.52413	18.52413	13.61088
 238	444	5	0	17.95582	17.95582	14.07327
 239	444	3	0	22.37051	18.55073	20.19727
 240	444	4	0	25.13712	18.52413	20.22387
 241	444	5	0	24.67473	17.95582	20.79218
 242	444	3	0	9.45451	18.55073	7.28127
 243	444	4	0	12.22112	18.52413	7.30787
 244	444	5	0	11.75873	17.95582	7.87618
 245	444	3	0	9.45451	7.28127	18.55073
 246	444	4	0	12.22112	7.30787	18.52413
 247	444	5	0	11.75873	7.87618	17.95582
 248	444	3	0	3.46149	7.28127	20.19727
 249	444	4	0	0.69488	7.30787	20.22387
 250	444	5	0	1.15727	7.87618	20.79218
 251	444	3	0	3.46149	18.55073	5.63473
 252	444	4	0	0.69488	18.52413	5.60813
 253	444	5	0	1.15727	17.95582	5.03982
 254	444	3	0	16.37749	18.55073	18.55073
 255	444	4	0	13.61088	18.52413	18.52413
 256	444	5	0	14.07327	17.95582	17.95582
 257	444	3	0	20.19727	22.37051	18.55073
 258	444	4	0	20.22387	25.13712	18.52413
 259	444	5	0	20.79218	24.67473	17.95582
 260	444	3	0	20.19727	9.45451	5.63473
 261	444	4	0	20.22387	12.22112	5.60813
 262	444	5	0	20.79218	11.75873	5.03982
 263	444	3	0	5.63473	9.45451	20.19727
 264	444	4	0	5.60813	12.22112	20.22387
 265	444	5	0	5.03982	11.75873	20.79218
 266	444	3	0	20.19727	3.46149	7.28127
 267	444	4	0	20.22387	0.69488	7.30787
 268	444	5	0	20.79218	1.15727	7.87618
 269	444	3	0	20.19727	16.37749	20.19727
 270	444	4	0	20.22387	13.61088	20.22387
 271	444	5	0	20.79218	14.07327	20.79218
 272	444	3	0	5.63473	3.46149	18.55073
 273	444	4	0	5.60813	0.69488	18.52413
 274	444	5	0	5.03982	1.15727	17.95582
 275	444	3	0	20.19727	18.55073	3.46149
 276	444	4	0	20.22387	18.52413	0.69488
 277	444	5	0	20.79218	17.95582	1.15727
 278	444	3	0	20.19727	5.63473	16.37749
 279	444	4	0	20.22387	5.60813	13.61088
 280	444	5	0	20.79218	5.03982	14.07327
 281	444	3	0	5.63473	20.19727	16.37749
 282	444	4	0	5.60813	20.22387	13.61088
 283	444	5	0	5.03982	20.79218	14.07327
 284	444	3	0	20.19727	7.28127	22.37051
 285	444	4	0	20.22387	7.30787	25.13712
 286	444	5	0	20.79218	7.87618	24.67473
 287	444	3	0	20.19727	20.19727	9.45451
 288	444	4	0	20.22387	20.22387	12.22112
 289	444	5	0	20.79218	20.79218	11.75873
 290	444	3	0	5.63473	18.55073	22.37051
 291	444	4	0	5.60813	18.52413	25.13712
 292	444	5	0	5.03982	17.95582	24.67473
 293	444	3	0	18.55073	22.37051	5.63473
 294	444	4	0	18.52413	25.13712	5.60813
 295	444	5	0	17.95582	24.67473	5.03982
 296	444	3	0	18.55073	9.45451	18.55073
 297	444	4	0	18.52413	12.22112	18.52413
 298	444	5	0	17.95582	11.75873	17.95582
 299	444	3	0	7.28127	22.37051	20.19727
 300	444	4	0	7.30787	25.13712	20.22387
 301	444	5	0	7.87618	24.67473	20.79218
 302	444	3	0	7.28127	16.37749	18.55073
 303	444	4	0	7.30787	13.61088	18.52413
 304	444	5	0	7.87618	14.07327	17.95582
 305	444	3	0	18.55073	3.46149	20.19727
 306	444	4	0	18.52413	0.69488	20.22387
 307	444	5	0	17.95582	1.15727	20.79218
 308	444	3	0	18.55073	16.37749	7.28127
 309	444	4	0	18.52413	13.61088	7.30787
 310	444	5	0	17.95582	14.07327	7.87618
 311	444	3	0	22.37051	20.19727	7.28127
 312	444	4	0	25.13712	20.22387	7.30787
 313	444	5	0	24.67473	20.79218	7.87618
 314	444	3	0	9.45451	20.19727	20.19727
 315	444	4	0	12.22112	20.22387	20.22387
 316	444	5	0	11.75873	20.79218	20.79218
 317	444	3	0	22.37051	5.63473	18.55073
 318	444	4	0	25.13712	5.60813	18.52413
 319	444	5	0	24.67473	5.03982	17.95582
 320	444	3	0	3.46149	20.19727	18.55073
 321	444	4	0	0.69488	20.22387	18.52413
 322	444	5	0	1.15727	20.79218	17.95582
 323	444	3	0	16.37749	20.19727	5.63473
 324	444	4	0	13.61088	20.22387	5.60813
 325	444	5	0	14.07327	20.79218	5.03982
 326	444	3	0	16.37749	5.63473	20.19727
 327	444	4	0	13.61088	5.60813	20.22387
 328	444	5	0	14.07327	5.03982	20.79218
 329	444	4	0	6.458	6.458	2.8751
 330	444	4	0	6.458	6.458	1.38976
 331	444	4	0	6.458	19.374	15.7911
 332	444	4	0	6.458	19.374	14.30576
 333	444	4	0	19.374	19.374	2.8751
 334	444	4	0	19.374	19.374	1.38976
 335	444	4	0	19.374	6.458	15.7911
 336	444	4	0	19.374	6.458	14.30576
 337	444	4	0	19.374	6.458	22.9569
 338	444	4	0	19.374	6.458	24.44224
 339	444	4	0	19.374	19.374	10.0409
 340	444	4	0	19.374	19.374	11.52624
 341	444	4	0	6.458	6.458	10.0409
 342	444	4	0	6.458	6.458	11.52624
 343	444	4	0	6.458	19.374	22.9569
 344	444	4	0	6.458	19.374	24.44224
 345	444	4	0	2.8751	6.458	6.458
 346	444	4	0	1.38976	6.458	6.458
 347	444	4	0	15.7911	6.458	19.374
 348	444	4	0	14.30576	6.458	19.374
 349	444	4	0	2.8751	19.374	19.374
 350	444	4	0	1.38976	19.374	19.374
 351	444	4	0	15.7911	19.374	6.458
 352	444	4	0	14.30576	19.374	6.458
 353	444	4	0	22.9569	19.374	6.458
 354	444	4	0	24.44224	19.374	6.458
 355	444	4	0	10.0409	19.374	19.374
 356	444	4	0	11.52624	19.374	19.374
 357	444	4	0	10.0409	6.458	6.458
 358	444	4	0	11.52624	6.458	6.458
 359	444	4	0	22.9569	6.458	19.374
 360	444	4	0	24.44224	6.458	19.374
 361	444	4	0	6.458	2.8751	6.458
 362	444	4	0	6.458	1.38976	6.458
 363	444	4	0	6.458	15.7911	19.374
 364	444	4	0	6.458	14.30576	19.374
 365	444	4	0	19.374	2.8751	19.374
 366	444	4	0	19.374	1.38976	19.374
 367	444	4	0	19.374	15.7911	6.458
 368	444	4	0	19.374	14.30576	6.458
 369	444	4	0	6.458	22.9569	19.374
 370	444	4	0	6.458	24.44224	19.374
 371	444	4	0	6.458	10.0409	6.458
 372	444	4	0	6.458	11.52624	6.458
 373	444	4	0	19.374	22.9569	6.458
 374	444	4	0	19.374	24.44224	6.458
 375	444	4	0	19.374	10.0409	19.374
 376	444	4	0	19.374	11.52624	19.374
 377	444	4	0	6.458	6.458	22.9569
 378	444	4	0	6.458	6.458	24.44224
 379	444	4	0	6.458	19.374	10.0409
 380	444	4	0	6.458	19.374	11.52624
 381	444	4	0	19.374	19.374	22.9569
 382	444	4	0	19.374	19.374	24.44224
 383	444	4	0	19.374	6.458	10.0409
 384	444	4	0	19.374	6.458	11.52624
 385	444	4	0	6.458	19.374	2.8751
 386	444	4	0	6.458	19.374	1.38976
 387	444	4	0	6.458	6.458	15.7911
 388	444	4	0	6.458	6.458	14.30576
 389	444	4	0	19.374	6.458	2.8751
 390	444	4	0	19.374	6.458	1.38976
 391	444	4	0	19.374	19.374	15.7911
 392	444	4	0	19.374	19.374	14.30576
 393	444	4	0	6.458	2.8751	19.374
 394	444	4	0	6.458	1.38976	19.374
 395	444	4	0	6.458	15.7911	6.458
 396	444	4	0	6.458	14.30576	6.458
 397	444	4	0	19.374	2.8751	6.458
 398	444	4	0	19.374	1.38976	6.458
 399	444	4	0	19.374	15.7911	19.374
 400	444	4	0	19.374	14.30576	19.374
 401	444	4	0	19.374	22.9569	19.374
 402	444	4	0	19.374	24.44224	19.374
 403	444	4	0	19.374	10.0409	6.458
 404	444	4	0	19.374	11.52624	6.458
 405	444	4	0	6.458	22.9569	6.458
 406	444	4	0	6.458	24.44224	6.458
 407	444	4	0	6.458	10.0409	19.374
 408	444	4	0	6.458	11.52624	19.374
 409	444	4	0	2.8751	6.458	19.374
 410	444	4	0	1.38976	6.458	19.374
 411	444	4	0	15.7911	6.458	6.458
 412	444	4	0	14.30576	6.458	6.458
 413	444	4	0	2.8751	19.374	6.458
 414	444	4	0	1.38976	19.374	6.458
 415	444	4	0	15.7911	19.374	19.374
 416	444	4	0	14.30576	19.374	19.374
 417	444	4	0	22.9569	6.458	6.458
 418	444	4	0	24.44224	6.458	6.458
 419	444	4	0	10.0409	6.458	19.374
 420	444	4	0	11.52624	6.458	19.374
 421	444	4	0	22.9569	19.374	19.374
 422	444	4	0	24.44224	19.374	19.374
 423	444	4	0	10.0409	19.374	6.458
 424	444	4	0	11.52624	19.374	6.458

Velocities

   1	0.0	0.0	0.0
   2	0.0	0.0	0.0
   3	0.0	0.0	0.0
   4	0.0	0.0	0.0
   5	0.0	0.0	0.0
   6	0.0	0.0	0.0
   7	0.0	0.0	0.0
   8	0.0	0.0	0.0
   9	0.0	0.0	0.0
  10	0.0	0.0	0.0
  11	0.0	0.0	0.0
  12	0.0	0.0	0.0
  13	0.0	0.0	0.0
  14	0.0	0.0	0.0
  15	0.0	0.0	0.0
  16	0.0	0.0	0.0
  17	0.0	0.0	0.0
  18	0.0	0.0	0.0
  19	0.0	0.0	0.0
  20	0.0	0.0	0.0
  21	0.0	0.0	0.0
  22	0.0	0.0	0.0
  23	0.0	0.0	0.0
  24	0.0	0.0	0.0
  25	0.0	0.0	0.0
  26	0.0	0.0	0.0
  27	0.0	0.0	0.0
  28	0.0	0.0	0.0
  29	0.0	0.0	0.0
  30	0.0	0.0	0.0
  31	0.0	0.0	0.0
  32	0.0	0.0	0.0
  33	0.0	0.0	0.0
  34	0.0	0.0	0.0
  35	0.0	0.0	0.0
  36	0.0	0.0	0.0
  37	0.0	0.0	0.0
  38	0.0	0.0	0.0
  39	0.0	0.0	0.0
  40	0.0	0.0	0.0
  41	0.0	0.0	0.0
  42	0.0	0.0	0.0
  43	0.0	0.0	0.0
  44	0.0	0.0	0.0
  45	0.0	0.0	0.0
  46	0.0	0.0	0.0
  47	0.0	0.0	0.0
  48	0.0	0.0	0.0
  49	0.0	0.0	0.0
  50	0.0	0.0	0.0
  51	0.0	0.0	0.0
  52	0.0	0.0	0.0
  53	0.0	0.0	0.0
  54	0.0	0.0	0.0
  55	0.0	0.0	0.0
  56	0.0	0.0	0.0
  57	0.0	0.0	0.0
  58	0.0	0.0	0.0
  59	0.0	0.0	0.0
  60	0.0	0.0	0.0
  61	0.0	0.0	0.0
  62	0.0	0.0	0.0
  63	0.0	0.0	0.0
  64	0.0	0.0	0.0
  65	0.0	0.0	0.0
  66	0.0	0.0	0.0
  67	0.0	0.0	0.0
  68	0.0	0.0	0.0
  69	0.0	0.0	0.0
  70	0.0	0.0	0.0
  71	0.0	0.0	0.0
  72	0.0	0.0	0.0
  73	0.0	0.0	0.0
  74	0.0	0.0	0.0
  75	0.0	0.0	0.0
  76	0.0	0.0	0.0
  77	0.0	0.0	0.0
  78	0.0	0.0	0.0
  79	0.0	0.0	0.0
  80	0.0	0.0	0.0
  81	0.0	0.0	0.0
  82	0.0	0.0	0.0
  83	0.0	0.0	0.0
  84	0.0	0.0	0.0
  85	0.0	0.0	0.0
  86	0.0	0.0	0.0
  87	0.0	0.0	0.0
  88	0.0	0.0	0.0
  89	0.0	0.0	0.0
  90	0.0	0.0	0.0
  91	0.0	0.0	0.0
  92	0.0	0.0	0.0
  93	0.0	0.0	0.0
  94	0.0	0.0	0.0
  95	0.0	0.0	0.0
  96	0.0	0.0	0.0
  97	0.0	0.0	0.0
  98	0.0	0.0	0.0
  99	0.0	0.0	0.0
 100	0.0	0.0	0.0
 101	0.0	0.0	0.0
 102	0.0	0.0	0.0
 103	0.0	0.0	0.0
 104	0.0	0.0	0.0
 105	0.0	0.0	0.0
 106	0.0	0.0	0.0
 107	0.0	0.0	0.0
 108	0.0	0.0	0.0
 109	0.0	0.0	0.0
 110	0.0	0.0	0.0
 111	0.0	0.0	0.0
 112	0.0	0.0	0.0
 113	0.0	0.0	0.0
 114	0.0	0.0	0.0
 115	0.0	0.0	0.0
 116	0.0	0.0	0.0
 117	0.0	0.0	0.0
 118	0.0	0.0	0.0
 119	0.0	0.0	0.0
 120	0.0	0.0	0.0
 121	0.0	0.0	0.0
 122	0.0	0.0	0.0
 123	0.0	0.0	0.0
 124	0.0	0.0	0.0
 125	0.0	0.0	0.0
 126	0.0	0.0	0.0
 127	0.0	0.0	0.0
 128	0.0	0.0	0.0
 129	0.0	0.0	0.0
 130	0.0	0.0	0.0
 131	0.0	0.0	0.0
 132	0.0	0.0	0.0
 133	0.0	0.0	0.0
 134	0.0	0.0	0.0
 135	0.0	0.0	0.0
 136	0.0	0.0	0.0
 137	0.0	0.0	0.0
 138	0.0	0.0	0.0
 139	0.0	0.0	0.0
 140	0.0	0.0	0.0
 141	0.0	0.0	0.0
 142	0.0	0.0	0.0
 143	0.0	0.0	0.0
 144	0.0	0.0	0.0
 145	0.0	0.0	0.0
 146	0.0	0.0	0.0
 147	0.0	0.0	0.0
 148	0.0	0.0	0.0
 149	0.0	0.0	0.0
 150	0.0	0.0	0.0
 151	0.0	0.0	0.0
 152	0.0	0.0	0.0
 153	0.0	0.0	0.0
 154	0.0	0.0	0.0
 155	0.0	0.0	0.0
 156	0.0	0.0	0.0
 157	0.0	0.0	0.0
 158	0.0	0.0	0.0
 159	0.0	0.0	0.0
 160	0.0	0.0	0.0
 161	0.0	0.0	0.0
 162	0.0	0.0	0.0
 163	0.0	0.0	0.0
 164	0.0	0.0	0.0
 165	0.0	0.0	0.0
 166	0.0	0.0	0.0
 167	0.0	0.0	0.0
 168	0.0	0.0	0.0
 169	0.0	0.0	0.0
 170	0.0	0.0	0.0
 171	0.0	0.0	0.0
 172	0.0	0.0	0.0
 173	0.0	0.0	0.0
 174	0.0	0.0	0.0
 175	0.0	0.0	0.0
 176	0.0	0.0	0.0
 177	0.0	0.0	0.0
 178	0.0	0.0	0.0
 179	0.0	0.0	0.0
 180	0.0	0.0	0.0
 181	0.0	0.0	0.0
 182	0.0	0.0	0.0
 183	0.0	0.0	0.0
 184	0.0	0.0	0.0
 185	0.0	0.0	0.0
 186	0.0	0.0	0.0
 187	0.0	0.0	0.0
 188	0.0	0.0	0.0
 189	0.0	0.0	0.0
 190	0.0	0.0	0.0
 191	0.0	0.0	0.0
 192	0.0	0.0	0.0
 193	0.0	0.0	0.0
 194	0.0	0.0	0.0
 195	0.0	0.0	0.0
 196	0.0	0.0	0.0
 197	0.0	0.0	0.0
 198	0.0	0.0	0.0
 199	0.0	0.0	0.0
 200	0.0	0.0	0.0
 201	0.0	0.0	0.0
 202	0.0	0.0	0.0
 203	0.0	0.0	0.0
 204	0.0	0.0	0.0
 205	0.0	0.0	0.0
 206	0.0	0.0	0.0
 207	0.0	0.0	0.0
 208	0.0	0.0	0.0
 209	0.0	0.0	0.0
 210	0.0	0.0	0.0
 211	0.0	0.0	0.0
 212	0.0	0.0	0.0
 213	0.0	0.0	0.0
 214	0.0	0.0	0.0
 215	0.0	0.0	0.0
 216	0.0	0.0	0.0
 217	0.0	0.0	0.0
 218	0.0	0.0	0.0
 219	0.0	0.0	0.0
 220	0.0	0.0	0.0
 221	0.0	0.0	0.0
 222	0.0	0.0	0.0
 223	0.0	0.0	0.0
 224	0.0	0.0	0.0
 225	0.0	0.0	0.0
 226	0.0	0.0	0.0
 227	0.0	0.0	0.0
 228	0.0	0.0	0.0
 229	0.0	0.0	0.0
 230	0.0	0.0	0.0
 231	0.0	0.0	0.0
 232	0.0	0.0	0.0
 233	0.0	0.0	0.0
 234	0.0	0.0	0.0
 235	0.0	0.0	0.0
 236	0.0	0.0	0.0
 237	0.0	0.0	0.0
 238	0.0	0.0	0.0
 239	0.0	0.0	0.0
 240	0.0	0.0	0.0
 241	0.0	0.0	0.0
 242	0.0	0.0	0.0
 243	0.0	0.0	0.0
 244	0.0	0.0	0.0
 245	0.0	0.0	0.0
 246	0.0	0.0	0.0
 247	0.0	0.0	0.0
 248	0.0	0.0	0.0
 249	0.0	0.0	0.0
 250	0.0	0.0	0.0
 251	0.0	0.0	0.0
 252	0.0	0.0	0.0
 253	0.0	0.0	0.0
 254	0.0	0.0	0.0
 255	0.0	0.0	0.0
 256	0.0	0.0	0.0
 257	0.0	0.0	0.0
 258	0.0	0.0	0.0
 259	0.0	0.0	0.0
 260	0.0	0.0	0.0
 261	0.0	0.0	0.0
 262	0.0	0.0	0.0
 263	0.0	0.0	0.0
 264	0.0	0.0	0.0
 265	0.0	0.0	0.0
 266	0.0	0.0	0.0
 267	0.0	0.0	0.0
 268	0.0	0.0	0.0
 269	0.0	0.0	0.0
 270	0.0	0.0	0.0
 271	0.0	0.0	0.0
 272	0.0	0.0	0.0
 273	0.0	0.0	0.0
 274	0.0	0.0	0.0
 275	0.0	0.0	0.0
 276	0.0	0.0	0.0
 277	0.0	0.0	0.0
 278	0.0	0.0	0.0
 279	0.0	0.0	0.0
 280	0.0	0.0	0.0
 281	0.0	0.0	0.0
 282	0.0	0.0	0.0
 283	0.0	0.0	0.0
 284	0.0	0.0	0.0
 285	0.0	0.0	0.0
 286	0.0	0.0	0.0
 287	0.0	0.0	0.0
 288	0.0	0.0	0.0
 289	0.0	0.0	0.0
 290	0.0	0.0	0.0
 291	0.0	0.0	0.0
 292	0.0	0.0	0.0
 293	0.0	0.0	0.0
 294	0.0	0.0	0.0
 295	0.0	0.0	0.0
 296	0.0	0.0	0.0
 297	0.0	0.0	0.0
 298	0.0	0.0	0.0
 299	0.0	0.0	0.0
 300	0.0	0.0	0.0
 301	0.0	0.0	0.0
 302	0.0	0.0	0.0
 303	0.0	0.0	0.0
 304	0.0	0.0	0.0
 305	0.0	0.0	0.0
 306	0.0	0.0	0.0
 307	0.0	0.0	0.0
 308	0.0	0.0	0.0
 309	0.0	0.0	0.0
 310	0.0	0.0	0.0
 311	0.0	0.0	0.0
 312	0.0	0.0	0.0
 313	0.0	0.0	0.0
 314	0.0	0.0	0.0
 315	0.0	0.0	0.0
 316	0.0	0.0	0.0
 317	0.0	0.0	0.0
 318	0.0	0.0	0.0
 319	0.0	0.0	0.0
 320	0.0	0.0	0.0
 321	0.0	0.0	0.0
 322	0.0	0.0	0.0
 323	0.0	0.0	0.0
 324	0.0	0.0	0.0
 325	0.0	0.0	0.0
 326	0.0	0.0	0.0
 327	0.0	0.0	0.0
 328	0.0	0.0	0.0
 329	0.0	0.0	0.0
 330	0.0	0.0	0.0
 331	0.0	0.0	0.0
 332	0.0	0.0	0.0
 333	0.0	0.0	0.0
 334	0.0	0.0	0.0
 335	0.0	0.0	0.0
 336	0.0	0.0	0.0
 337	0.0	0.0	0.0
 338	0.0	0.0	0.0
 339	0.0	0.0	0.0
 340	0.0	0.0	0.0
 341	0.0	0.0	0.0
 342	0.0	0.0	0.0
 343	0.0	0.0	0.0
 344	0.0	0.0	0.0
 345	0.0	0.0	0.0
 346	0.0	0.0	0.0
 347	0.0	0.0	0.0
 348	0.0	0.0	0.0
 349	0.0	0.0	0.0
 350	0.0	0.0	0.0
 351	0.0	0.0	0.0
 352	0.0	0.0	0.0
 353	0.0	0.0	0.0
 354	0.0	0.0	0.0
 355	0.0	0.0	0.0
 356	0.0	0.0	0.0
 357	0.0	0.0	0.0
 358	0.0	0.0	0.0
 359	0.0	0.0	0.0
 360	0.0	0.0	0.0
 361	0.0	0.0	0.0
 362	0.0	0.0	0.0
 363	0.0	0.0	0.0
 364	0.0	0.0	0.0
 365	0.0	0.0	0.0
 366	0.0	0.0	0.0
 367	0.0	0.0	0.0
 368	0.0	0.0	0.0
 369	0.0	0.0	0.0
 370	0.0	0.0	0.0
 371	0.0	0.0	0.0
 372	0.0	0.0	0.0
 373	0.0	0.0	0.0
 374	0.0	0.0	0.0
 375	0.0	0.0	0.0
 376	0.0	0.0	0.0
 377	0.0	0.0	0.0
 378	0.0	0.0	0.0
 379	0.0	0.0	0.0
 380	0.0	0.0	0.0
 381	0.0	0.0	0.0
 382	0.0	0.0	0.0
 383	0.0	0.0	0.0
 384	0.0	0.0	0.0
 385	0.0	0.0	0.0
 386	0.0	0.0	0.0
 387	0.0	0.0	0.0
 388	0.0	0.0	0.0
 389	0.0	0.0	0.0
 390	0.0	0.0	0.0
 391	0.0	0.0	0.0
 392	0.0	0.0	0.0
 393	0.0	0.0	0.0
 394	0.0	0.0	0.0
 395	0.0	0.0	0.0
 396	0.0	0.0	0.0
 397	0.0	0.0	0.0
 398	0.0	0.0	0.0
 399	0.0	0.0	0.0
 400	0.0	0.0	0.0
 401	0.0	0.0	0.0
 402	0.0	0.0	0.0
 403	0.0	0.0	0.0
 404	0.0	0.0	0.0
 405	0.0	0.0	0.0
 406	0.0	0.0	0.0
 407	0.0	0.0	0.0
 408	0.0	0.0	0.0
 409	0.0	0.0	0.0
 410	0.0	0.0	0.0
 411	0.0	0.0	0.0
 412	0.0	0.0	0.0
 413	0.0	0.0	0.0
 414	0.0	0.0	0.0
 415	0.0	0.0	0.0
 416	0.0	0.0	0.0
 417	0.0	0.0	0.0
 418	0.0	0.0	0.0
 419	0.0	0.0	0.0
 420	0.0	0.0	0.0
 421	0.0	0.0	0.0
 422	0.0	0.0	0.0
 423	0.0	0.0	0.0
 424	0.0	0.0	0.0

Bonds

   1	1	1	33
   2	1	1	41
   3	1	1	92
   4	1	1	113
   5	1	2	36
   6	1	2	44
   7	1	2	89
   8	1	2	302
   9	1	3	34
  10	1	3	47
  11	1	3	293
  12	1	3	323
  13	1	4	35
  14	1	4	50
  15	1	4	74
  16	1	4	296
  17	1	5	33
  18	1	5	53
  19	1	5	71
  20	1	5	119
  21	1	6	35
  22	1	6	56
  23	1	6	305
  24	1	6	326
  25	1	7	34
  26	1	7	59
  27	1	7	83
  28	1	7	308
  29	1	8	33
  30	1	8	62
  31	1	8	80
  32	1	8	101
  33	1	9	36
  34	1	9	65
  35	1	9	299
  36	1	9	314
  37	1	10	33
  38	1	10	68
  39	1	10	98
  40	1	10	128
  41	1	11	36
  42	1	11	77
  43	1	11	104
  44	1	11	290
  45	1	12	34
  46	1	12	86
  47	1	12	110
  48	1	12	275
  49	1	13	35
  50	1	13	95
  51	1	13	125
  52	1	13	284
  53	1	14	35
  54	1	14	107
  55	1	14	278
  56	1	14	317
  57	1	15	36
  58	1	15	116
  59	1	15	281
  60	1	15	320
  61	1	16	34
  62	1	16	122
  63	1	16	287
  64	1	16	311
  65	1	17	37
  66	1	17	131
  67	1	17	248
  68	1	17	263
  69	1	18	38
  70	1	18	137
  71	1	18	239
  72	1	18	269
  73	1	19	39
  74	1	19	140
  75	1	19	206
  76	1	19	266
  77	1	20	37
  78	1	20	143
  79	1	20	161
  80	1	20	209
  81	1	21	40
  82	1	21	146
  83	1	21	173
  84	1	21	251
  85	1	22	39
  86	1	22	152
  87	1	22	215
  88	1	22	260
  89	1	23	37
  90	1	23	158
  91	1	23	188
  92	1	23	245
  93	1	24	40
  94	1	24	164
  95	1	24	227
  96	1	24	242
  97	1	25	39
  98	1	25	167
  99	1	25	194
 100	1	25	233
 101	1	26	38
 102	1	26	170
 103	1	26	236
 104	1	26	254
 105	1	27	38
 106	1	27	176
 107	1	27	200
 108	1	27	221
 109	1	28	39
 110	1	28	179
 111	1	28	203
 112	1	28	224
 113	1	29	40
 114	1	29	134
 115	1	29	182
 116	1	29	197
 117	1	30	40
 118	1	30	185
 119	1	30	218
 120	1	30	230
 121	1	31	37
 122	1	31	149
 123	1	31	191
 124	1	31	272
 125	1	32	38
 126	1	32	155
 127	1	32	212
 128	1	32	257
 129	2	41	329
 130	4	42	43
 131	3	42	330
 132	2	44	331
 133	4	45	46
 134	3	45	228
 135	3	45	332
 136	2	47	333
 137	4	48	49
 138	3	48	334
 139	2	50	335
 140	4	51	52
 141	3	51	225
 142	3	51	336
 143	2	53	329
 144	4	54	55
 145	3	54	330
 146	2	56	337
 147	4	57	58
 148	3	57	338
 149	2	59	339
 150	4	60	61
 151	3	60	237
 152	3	60	340
 153	2	62	341
 154	4	63	64
 155	3	63	150
 156	3	63	342
 157	2	65	343
 158	4	66	67
 159	3	66	344
 160	2	68	341
 161	4	69	70
 162	3	69	159
 163	3	69	342
 164	2	71	345
 165	4	72	73
 166	3	72	346
 167	2	74	347
 168	4	75	76
 169	3	75	246
 170	3	75	348
 171	2	77	349
 172	4	78	79
 173	3	78	350
 174	2	80	345
 175	4	81	82
 176	3	81	346
 177	2	83	351
 178	4	84	85
 179	3	84	243
 180	3	84	352
 181	2	86	353
 182	4	87	88
 183	3	87	354
 184	2	89	355
 185	4	90	91
 186	3	90	255
 187	3	90	356
 188	2	92	357
 189	4	93	94
 190	3	93	195
 191	3	93	358
 192	2	95	359
 193	4	96	97
 194	3	96	360
 195	2	98	357
 196	4	99	100
 197	3	99	204
 198	3	99	358
 199	2	101	361
 200	4	102	103
 201	3	102	362
 202	2	104	363
 203	4	105	106
 204	3	105	264
 205	3	105	364
 206	2	107	365
 207	4	108	109
 208	3	108	366
 209	2	110	367
 210	4	111	112
 211	3	111	261
 212	3	111	368
 213	2	113	361
 214	4	114	115
 215	3	114	362
 216	2	116	369
 217	4	117	118
 218	3	117	370
 219	2	119	371
 220	4	120	121
 221	3	120	174
 222	3	120	372
 223	2	122	373
 224	4	123	124
 225	3	123	374
 226	2	125	375
 227	4	126	127
 228	3	126	270
 229	3	126	376
 230	2	128	371
 231	4	129	130
 232	3	129	165
 233	3	129	372
 234	2	131	377
 235	3	132	54
 236	4	132	133
 237	3	132	378
 238	2	134	379
 239	4	135	136
 240	3	135	282
 241	3	135	380
 242	2	137	381
 243	4	138	139
 244	3	138	382
 245	2	140	383
 246	4	141	142
 247	3	141	279
 248	3	141	384
 249	2	143	377
 250	3	144	42
 251	4	144	145
 252	3	144	378
 253	2	146	385
 254	4	147	148
 255	3	147	386
 256	2	149	387
 257	4	150	151
 258	3	150	388
 259	2	152	389
 260	4	153	154
 261	3	153	390
 262	2	155	391
 263	4	156	157
 264	3	156	288
 265	3	156	392
 266	2	158	387
 267	4	159	160
 268	3	159	388
 269	2	161	393
 270	4	162	163
 271	3	162	394
 272	2	164	395
 273	4	165	166
 274	3	165	396
 275	2	167	397
 276	4	168	169
 277	3	168	398
 278	2	170	399
 279	4	171	172
 280	3	171	297
 281	3	171	400
 282	2	173	395
 283	4	174	175
 284	3	174	396
 285	2	176	401
 286	4	177	178
 287	3	177	402
 288	2	179	403
 289	4	180	181
 290	3	180	309
 291	3	180	404
 292	2	182	405
 293	3	183	102
 294	4	183	184
 295	3	183	406
 296	2	185	405
 297	3	186	114
 298	4	186	187
 299	3	186	406
 300	2	188	407
 301	4	189	190
 302	3	189	303
 303	3	189	408
 304	2	191	409
 305	4	192	193
 306	3	192	410
 307	2	194	411
 308	4	195	196
 309	3	195	412
 310	2	197	413
 311	4	198	199
 312	3	198	414
 313	2	200	415
 314	4	201	202
 315	3	201	315
 316	3	201	416
 317	2	203	411
 318	4	204	205
 319	3	204	412
 320	2	206	417
 321	3	207	81
 322	4	207	208
 323	3	207	418
 324	2	209	419
 325	4	210	211
 326	3	210	327
 327	3	210	420
 328	2	212	421
 329	4	213	214
 330	3	213	422
 331	2	215	417
 332	3	216	72
 333	4	216	217
 334	3	216	418
 335	2	218	423
 336	4	219	220
 337	3	219	324
 338	3	219	424
 339	2	221	381
 340	3	222	48
 341	4	222	223
 342	3	222	382
 343	2	224	383
 344	4	225	226
 345	3	225	384
 346	2	227	379
 347	4	228	229
 348	3	228	380
 349	2	230	385
 350	3	231	66
 351	4	231	232
 352	3	231	386
 353	2	233	389
 354	3	234	57
 355	4	234	235
 356	3	234	390
 357	2	236	391
 358	4	237	238
 359	3	237	392
 360	2	239	421
 361	3	240	78
 362	4	240	241
 363	3	240	422
 364	2	242	423
 365	4	243	244
 366	3	243	424
 367	2	245	419
 368	4	246	247
 369	3	246	420
 370	2	248	409
 371	3	249	96
 372	4	249	250
 373	3	249	410
 374	2	251	413
 375	3	252	87
 376	4	252	253
 377	3	252	414
 378	2	254	415
 379	4	255	256
 380	3	255	416
 381	2	257	401
 382	3	258	108
 383	4	258	259
 384	3	258	402
 385	2	260	403
 386	4	261	262
 387	3	261	404
 388	2	263	407
 389	4	264	265
 390	3	264	408
 391	2	266	397
 392	3	267	123
 393	4	267	268
 394	3	267	398
 395	2	269	399
 396	4	270	271
 397	3	270	400
 398	2	272	393
 399	3	273	117
 400	4	273	274
 401	3	273	394
 402	2	275	333
 403	3	276	138
 404	4	276	277
 405	3	276	334
 406	2	278	335
 407	4	279	280
 408	3	279	336
 409	2	281	331
 410	4	282	283
 411	3	282	332
 412	2	284	337
 413	3	285	153
 414	4	285	286
 415	3	285	338
 416	2	287	339
 417	4	288	289
 418	3	288	340