pySIMM System Object

760 atoms
0 bonds
0 angles
0 dihedrals
0 impropers

5 atom types

0.000000 33.684500 xlo xhi
0.000000 33.684500 ylo yhi
0.000000 33.684500 zlo zhi

Masses

   1	15.9994	# O_3
   2	15.9994	# O_R
   3	12.011	# C_R
   4	65.377	# Zn
   5	1.008	# H_

Pair Coeffs

   1	0.0957	3.03315377578	# O_3
   2	0.0957	3.03315377578	# O_R
   3	0.0951	3.47299047293	# C_R
   4	0.055	4.04468018036	# Zn
   5	0.0152	2.84642140446	# H_

Atoms

   1	1	3	0	25.774	25.774	5.004
   2	1	3	0	8.591	8.591	29.361
   3	1	3	0	8.591	8.591	5.004
   4	1	3	0	25.774	25.774	29.361
   5	1	3	0	8.591	25.774	29.361
   6	1	3	0	25.774	8.591	5.004
   7	1	3	0	25.774	8.591	29.361
   8	1	3	0	8.591	25.774	5.004
   9	1	3	0	5.004	25.774	25.774
  10	1	3	0	29.361	8.591	8.591
  11	1	3	0	5.004	8.591	8.591
  12	1	3	0	29.361	25.774	25.774
  13	1	3	0	29.361	8.591	25.774
  14	1	3	0	5.004	25.774	8.591
  15	1	3	0	29.361	25.774	8.591
  16	1	3	0	5.004	8.591	25.774
  17	1	3	0	25.774	5.004	25.774
  18	1	3	0	8.591	29.361	8.591
  19	1	3	0	8.591	5.004	8.591
  20	1	3	0	25.774	29.361	25.774
  21	1	3	0	25.774	29.361	8.591
  22	1	3	0	8.591	5.004	25.774
  23	1	3	0	8.591	29.361	25.774
  24	1	3	0	25.774	5.004	8.591
  25	1	3	0	25.774	8.591	22.187
  26	1	3	0	8.591	25.774	12.179
  27	1	3	0	8.591	25.774	22.187
  28	1	3	0	25.774	8.591	12.179
  29	1	3	0	8.591	8.591	12.179
  30	1	3	0	25.774	25.774	22.187
  31	1	3	0	25.774	25.774	12.179
  32	1	3	0	8.591	8.591	22.187
  33	1	3	0	25.774	22.187	8.591
  34	1	3	0	8.591	12.179	25.774
  35	1	3	0	8.591	22.187	25.774
  36	1	3	0	25.774	12.179	8.591
  37	1	3	0	25.774	12.179	25.774
  38	1	3	0	8.591	22.187	8.591
  39	1	3	0	8.591	12.179	8.591
  40	1	3	0	25.774	22.187	25.774
  41	1	3	0	22.187	25.774	8.591
  42	1	3	0	12.179	8.591	25.774
  43	1	3	0	22.187	8.591	25.774
  44	1	3	0	12.179	25.774	8.591
  45	1	3	0	12.179	8.591	8.591
  46	1	3	0	22.187	25.774	25.774
  47	1	3	0	12.179	25.774	25.774
  48	1	3	0	22.187	8.591	8.591
  49	1	3	0	25.774	25.774	3.515
  50	1	3	0	8.591	8.591	30.85
  51	1	3	0	8.591	8.591	3.515
  52	1	3	0	25.774	25.774	30.85
  53	1	3	0	8.591	25.774	30.85
  54	1	3	0	25.774	8.591	3.515
  55	1	3	0	25.774	8.591	30.85
  56	1	3	0	8.591	25.774	3.515
  57	1	3	0	3.515	25.774	25.774
  58	1	3	0	30.85	8.591	8.591
  59	1	3	0	3.515	8.591	8.591
  60	1	3	0	30.85	25.774	25.774
  61	1	3	0	30.85	8.591	25.774
  62	1	3	0	3.515	25.774	8.591
  63	1	3	0	30.85	25.774	8.591
  64	1	3	0	3.515	8.591	25.774
  65	1	3	0	25.774	3.515	25.774
  66	1	3	0	8.591	30.85	8.591
  67	1	3	0	8.591	3.515	8.591
  68	1	3	0	25.774	30.85	25.774
  69	1	3	0	25.774	30.85	8.591
  70	1	3	0	8.591	3.515	25.774
  71	1	3	0	8.591	30.85	25.774
  72	1	3	0	25.774	3.515	8.591
  73	1	3	0	25.774	8.591	20.697
  74	1	3	0	8.591	25.774	13.668
  75	1	3	0	8.591	25.774	20.697
  76	1	3	0	25.774	8.591	13.668
  77	1	3	0	8.591	8.591	13.668
  78	1	3	0	25.774	25.774	20.697
  79	1	3	0	25.774	25.774	13.668
  80	1	3	0	8.591	8.591	20.697
  81	1	3	0	25.774	20.697	8.591
  82	1	3	0	8.591	13.668	25.774
  83	1	3	0	8.591	20.697	25.774
  84	1	3	0	25.774	13.668	8.591
  85	1	3	0	25.774	13.668	25.774
  86	1	3	0	8.591	20.697	8.591
  87	1	3	0	8.591	13.668	8.591
  88	1	3	0	25.774	20.697	25.774
  89	1	3	0	20.697	25.774	8.591
  90	1	3	0	13.668	8.591	25.774
  91	1	3	0	20.697	8.591	25.774
  92	1	3	0	13.668	25.774	8.591
  93	1	3	0	13.668	8.591	8.591
  94	1	3	0	20.697	25.774	25.774
  95	1	3	0	13.668	25.774	25.774
  96	1	3	0	20.697	8.591	8.591
  97	1	3	0	25.774	25.774	0.709
  98	1	3	0	8.591	8.591	33.656
  99	1	3	0	8.591	8.591	0.709
 100	1	3	0	25.774	25.774	33.656
 101	1	3	0	8.591	25.774	33.656
 102	1	3	0	25.774	8.591	0.709
 103	1	3	0	25.774	8.591	33.656
 104	1	3	0	8.591	25.774	0.709
 105	1	3	0	0.709	25.774	25.774
 106	1	3	0	33.656	8.591	8.591
 107	1	3	0	0.709	8.591	8.591
 108	1	3	0	33.656	25.774	25.774
 109	1	3	0	33.656	8.591	25.774
 110	1	3	0	0.709	25.774	8.591
 111	1	3	0	33.656	25.774	8.591
 112	1	3	0	0.709	8.591	25.774
 113	1	3	0	25.774	0.709	25.774
 114	1	3	0	8.591	33.656	8.591
 115	1	3	0	8.591	0.709	8.591
 116	1	3	0	25.774	33.656	25.774
 117	1	3	0	25.774	33.656	8.591
 118	1	3	0	8.591	0.709	25.774
 119	1	3	0	8.591	33.656	25.774
 120	1	3	0	25.774	0.709	8.591
 121	1	3	0	25.774	8.591	17.892
 122	1	3	0	8.591	25.774	16.473
 123	1	3	0	8.591	25.774	17.892
 124	1	3	0	25.774	8.591	16.473
 125	1	3	0	8.591	8.591	16.473
 126	1	3	0	25.774	25.774	17.892
 127	1	3	0	25.774	25.774	16.473
 128	1	3	0	8.591	8.591	17.892
 129	1	3	0	25.774	17.892	8.591
 130	1	3	0	8.591	16.473	25.774
 131	1	3	0	8.591	17.892	25.774
 132	1	3	0	25.774	16.473	8.591
 133	1	3	0	25.774	16.473	25.774
 134	1	3	0	8.591	17.892	8.591
 135	1	3	0	8.591	16.473	8.591
 136	1	3	0	25.774	17.892	25.774
 137	1	3	0	17.892	25.774	8.591
 138	1	3	0	16.473	8.591	25.774
 139	1	3	0	17.892	8.591	25.774
 140	1	3	0	16.473	25.774	8.591
 141	1	3	0	16.473	8.591	8.591
 142	1	3	0	17.892	25.774	25.774
 143	1	3	0	16.473	25.774	25.774
 144	1	3	0	17.892	8.591	8.591
 145	1	3	0	26.631	26.631	2.822
 146	1	3	0	7.734	7.734	31.543
 147	1	3	0	7.734	7.734	2.822
 148	1	3	0	26.631	26.631	31.543
 149	1	3	0	7.734	26.631	31.543
 150	1	3	0	26.631	7.734	2.822
 151	1	3	0	26.631	7.734	31.543
 152	1	3	0	7.734	26.631	2.822
 153	1	3	0	2.822	26.631	26.631
 154	1	3	0	31.543	7.734	7.734
 155	1	3	0	2.822	7.734	7.734
 156	1	3	0	31.543	26.631	26.631
 157	1	3	0	31.543	7.734	26.631
 158	1	3	0	2.822	26.631	7.734
 159	1	3	0	31.543	26.631	7.734
 160	1	3	0	2.822	7.734	26.631
 161	1	3	0	26.631	2.822	26.631
 162	1	3	0	7.734	31.543	7.734
 163	1	3	0	7.734	2.822	7.734
 164	1	3	0	26.631	31.543	26.631
 165	1	3	0	26.631	31.543	7.734
 166	1	3	0	7.734	2.822	26.631
 167	1	3	0	7.734	31.543	26.631
 168	1	3	0	26.631	2.822	7.734
 169	1	3	0	26.631	9.449	20.004
 170	1	3	0	7.734	24.916	14.361
 171	1	3	0	7.734	24.916	20.004
 172	1	3	0	26.631	9.449	14.361
 173	1	3	0	7.734	9.449	14.361
 174	1	3	0	26.631	24.916	20.004
 175	1	3	0	26.631	24.916	14.361
 176	1	3	0	7.734	9.449	20.004
 177	1	3	0	2.822	9.449	9.449
 178	1	3	0	31.543	24.916	24.916
 179	1	3	0	2.822	24.916	24.916
 180	1	3	0	31.543	9.449	9.449
 181	1	3	0	31.543	24.916	9.449
 182	1	3	0	2.822	9.449	24.916
 183	1	3	0	31.543	9.449	24.916
 184	1	3	0	2.822	24.916	9.449
 185	1	3	0	26.631	20.004	9.449
 186	1	3	0	7.734	14.361	24.916
 187	1	3	0	7.734	20.004	24.916
 188	1	3	0	26.631	14.361	9.449
 189	1	3	0	26.631	14.361	24.916
 190	1	3	0	7.734	20.004	9.449
 191	1	3	0	7.734	14.361	9.449
 192	1	3	0	26.631	20.004	24.916
 193	1	3	0	9.449	26.631	20.004
 194	1	3	0	24.916	7.734	14.361
 195	1	3	0	24.916	7.734	20.004
 196	1	3	0	9.449	26.631	14.361
 197	1	3	0	24.916	26.631	14.361
 198	1	3	0	9.449	7.734	20.004
 199	1	3	0	9.449	7.734	14.361
 200	1	3	0	24.916	26.631	20.004
 201	1	3	0	20.004	26.631	9.449
 202	1	3	0	14.361	7.734	24.916
 203	1	3	0	20.004	7.734	24.916
 204	1	3	0	14.361	26.631	9.449
 205	1	3	0	14.361	7.734	9.449
 206	1	3	0	20.004	26.631	24.916
 207	1	3	0	14.361	26.631	24.916
 208	1	3	0	20.004	7.734	9.449
 209	1	3	0	9.449	2.822	9.449
 210	1	3	0	24.916	31.543	24.916
 211	1	3	0	24.916	2.822	24.916
 212	1	3	0	9.449	31.543	9.449
 213	1	3	0	9.449	31.543	24.916
 214	1	3	0	24.916	2.822	9.449
 215	1	3	0	24.916	31.543	9.449
 216	1	3	0	9.449	2.822	24.916
 217	1	3	0	9.449	9.449	2.822
 218	1	3	0	24.916	24.916	31.543
 219	1	3	0	24.916	24.916	2.822
 220	1	3	0	9.449	9.449	31.543
 221	1	3	0	24.916	9.449	31.543
 222	1	3	0	9.449	24.916	2.822
 223	1	3	0	9.449	24.916	31.543
 224	1	3	0	24.916	9.449	2.822
 225	1	3	0	20.004	9.449	26.631
 226	1	3	0	14.361	24.916	7.734
 227	1	3	0	20.004	24.916	7.734
 228	1	3	0	14.361	9.449	26.631
 229	1	3	0	14.361	24.916	26.631
 230	1	3	0	20.004	9.449	7.734
 231	1	3	0	14.361	9.449	7.734
 232	1	3	0	20.004	24.916	26.631
 233	1	3	0	9.449	20.004	26.631
 234	1	3	0	24.916	14.361	7.734
 235	1	3	0	24.916	20.004	7.734
 236	1	3	0	9.449	14.361	26.631
 237	1	3	0	9.449	14.361	7.734
 238	1	3	0	24.916	20.004	26.631
 239	1	3	0	24.916	14.361	26.631
 240	1	3	0	9.449	20.004	7.734
 241	1	3	0	26.648	26.648	1.423
 242	1	3	0	7.717	7.717	32.942
 243	1	3	0	7.717	7.717	1.423
 244	1	3	0	26.648	26.648	32.942
 245	1	3	0	7.717	26.648	32.942
 246	1	3	0	26.648	7.717	1.423
 247	1	3	0	26.648	7.717	32.942
 248	1	3	0	7.717	26.648	1.423
 249	1	3	0	1.423	26.648	26.648
 250	1	3	0	32.942	7.717	7.717
 251	1	3	0	1.423	7.717	7.717
 252	1	3	0	32.942	26.648	26.648
 253	1	3	0	32.942	7.717	26.648
 254	1	3	0	1.423	26.648	7.717
 255	1	3	0	32.942	26.648	7.717
 256	1	3	0	1.423	7.717	26.648
 257	1	3	0	26.648	1.423	26.648
 258	1	3	0	7.717	32.942	7.717
 259	1	3	0	7.717	1.423	7.717
 260	1	3	0	26.648	32.942	26.648
 261	1	3	0	26.648	32.942	7.717
 262	1	3	0	7.717	1.423	26.648
 263	1	3	0	7.717	32.942	26.648
 264	1	3	0	26.648	1.423	7.717
 265	1	3	0	26.648	9.465	18.605
 266	1	3	0	7.717	24.9	15.76
 267	1	3	0	7.717	24.9	18.605
 268	1	3	0	26.648	9.465	15.76
 269	1	3	0	7.717	9.465	15.76
 270	1	3	0	26.648	24.9	18.605
 271	1	3	0	26.648	24.9	15.76
 272	1	3	0	7.717	9.465	18.605
 273	1	3	0	1.423	9.465	9.465
 274	1	3	0	32.942	24.9	24.9
 275	1	3	0	1.423	24.9	24.9
 276	1	3	0	32.942	9.465	9.465
 277	1	3	0	32.942	24.9	9.465
 278	1	3	0	1.423	9.465	24.9
 279	1	3	0	32.942	9.465	24.9
 280	1	3	0	1.423	24.9	9.465
 281	1	3	0	26.648	18.605	9.465
 282	1	3	0	7.717	15.76	24.9
 283	1	3	0	7.717	18.605	24.9
 284	1	3	0	26.648	15.76	9.465
 285	1	3	0	26.648	15.76	24.9
 286	1	3	0	7.717	18.605	9.465
 287	1	3	0	7.717	15.76	9.465
 288	1	3	0	26.648	18.605	24.9
 289	1	3	0	9.465	26.648	18.605
 290	1	3	0	24.9	7.717	15.76
 291	1	3	0	24.9	7.717	18.605
 292	1	3	0	9.465	26.648	15.76
 293	1	3	0	24.9	26.648	15.76
 294	1	3	0	9.465	7.717	18.605
 295	1	3	0	9.465	7.717	15.76
 296	1	3	0	24.9	26.648	18.605
 297	1	3	0	18.605	26.648	9.465
 298	1	3	0	15.76	7.717	24.9
 299	1	3	0	18.605	7.717	24.9
 300	1	3	0	15.76	26.648	9.465
 301	1	3	0	15.76	7.717	9.465
 302	1	3	0	18.605	26.648	24.9
 303	1	3	0	15.76	26.648	24.9
 304	1	3	0	18.605	7.717	9.465
 305	1	3	0	9.465	1.423	9.465
 306	1	3	0	24.9	32.942	24.9
 307	1	3	0	24.9	1.423	24.9
 308	1	3	0	9.465	32.942	9.465
 309	1	3	0	9.465	32.942	24.9
 310	1	3	0	24.9	1.423	9.465
 311	1	3	0	24.9	32.942	9.465
 312	1	3	0	9.465	1.423	24.9
 313	1	3	0	9.465	9.465	1.423
 314	1	3	0	24.9	24.9	32.942
 315	1	3	0	24.9	24.9	1.423
 316	1	3	0	9.465	9.465	32.942
 317	1	3	0	24.9	9.465	32.942
 318	1	3	0	9.465	24.9	1.423
 319	1	3	0	9.465	24.9	32.942
 320	1	3	0	24.9	9.465	1.423
 321	1	3	0	18.605	9.465	26.648
 322	1	3	0	15.76	24.9	7.717
 323	1	3	0	18.605	24.9	7.717
 324	1	3	0	15.76	9.465	26.648
 325	1	3	0	15.76	24.9	26.648
 326	1	3	0	18.605	9.465	7.717
 327	1	3	0	15.76	9.465	7.717
 328	1	3	0	18.605	24.9	26.648
 329	1	3	0	9.465	18.605	26.648
 330	1	3	0	24.9	15.76	7.717
 331	1	3	0	24.9	18.605	7.717
 332	1	3	0	9.465	15.76	26.648
 333	1	3	0	9.465	15.76	7.717
 334	1	3	0	24.9	18.605	26.648
 335	1	3	0	24.9	15.76	26.648
 336	1	3	0	9.465	18.605	7.717
 337	1	3	0	27.513	27.513	0.681
 338	1	3	0	6.852	6.852	33.684
 339	1	3	0	6.852	6.852	0.681
 340	1	3	0	27.513	27.513	33.684
 341	1	3	0	6.852	27.513	33.684
 342	1	3	0	27.513	6.852	0.681
 343	1	3	0	27.513	6.852	33.684
 344	1	3	0	6.852	27.513	0.681
 345	1	3	0	0.681	27.513	27.513
 346	1	3	0	33.684	6.852	6.852
 347	1	3	0	0.681	6.852	6.852
 348	1	3	0	33.684	27.513	27.513
 349	1	3	0	33.684	6.852	27.513
 350	1	3	0	0.681	27.513	6.852
 351	1	3	0	33.684	27.513	6.852
 352	1	3	0	0.681	6.852	27.513
 353	1	3	0	27.513	0.681	27.513
 354	1	3	0	6.852	33.684	6.852
 355	1	3	0	6.852	0.681	6.852
 356	1	3	0	27.513	33.684	27.513
 357	1	3	0	27.513	33.684	6.852
 358	1	3	0	6.852	0.681	27.513
 359	1	3	0	6.852	33.684	27.513
 360	1	3	0	27.513	0.681	6.852
 361	1	3	0	27.513	10.331	17.864
 362	1	3	0	6.852	24.035	16.501
 363	1	3	0	6.852	24.035	17.864
 364	1	3	0	27.513	10.331	16.501
 365	1	3	0	6.852	10.331	16.501
 366	1	3	0	27.513	24.035	17.864
 367	1	3	0	27.513	24.035	16.501
 368	1	3	0	6.852	10.331	17.864
 369	1	3	0	0.681	10.331	10.331
 370	1	3	0	33.684	24.035	24.035
 371	1	3	0	0.681	24.035	24.035
 372	1	3	0	33.684	10.331	10.331
 373	1	3	0	33.684	24.035	10.331
 374	1	3	0	0.681	10.331	24.035
 375	1	3	0	33.684	10.331	24.035
 376	1	3	0	0.681	24.035	10.331
 377	1	3	0	27.513	17.864	10.331
 378	1	3	0	6.852	16.501	24.035
 379	1	3	0	6.852	17.864	24.035
 380	1	3	0	27.513	16.501	10.331
 381	1	3	0	27.513	16.501	24.035
 382	1	3	0	6.852	17.864	10.331
 383	1	3	0	6.852	16.501	10.331
 384	1	3	0	27.513	17.864	24.035
 385	1	3	0	10.331	27.513	17.864
 386	1	3	0	24.035	6.852	16.501
 387	1	3	0	24.035	6.852	17.864
 388	1	3	0	10.331	27.513	16.501
 389	1	3	0	24.035	27.513	16.501
 390	1	3	0	10.331	6.852	17.864
 391	1	3	0	10.331	6.852	16.501
 392	1	3	0	24.035	27.513	17.864
 393	1	3	0	17.864	27.513	10.331
 394	1	3	0	16.501	6.852	24.035
 395	1	3	0	17.864	6.852	24.035
 396	1	3	0	16.501	27.513	10.331
 397	1	3	0	16.501	6.852	10.331
 398	1	3	0	17.864	27.513	24.035
 399	1	3	0	16.501	27.513	24.035
 400	1	3	0	17.864	6.852	10.331
 401	1	3	0	10.331	0.681	10.331
 402	1	3	0	24.035	33.684	24.035
 403	1	3	0	24.035	0.681	24.035
 404	1	3	0	10.331	33.684	10.331
 405	1	3	0	10.331	33.684	24.035
 406	1	3	0	24.035	0.681	10.331
 407	1	3	0	24.035	33.684	10.331
 408	1	3	0	10.331	0.681	24.035
 409	1	3	0	10.331	10.331	0.681
 410	1	3	0	24.035	24.035	33.684
 411	1	3	0	24.035	24.035	0.681
 412	1	3	0	10.331	10.331	33.684
 413	1	3	0	24.035	10.331	33.684
 414	1	3	0	10.331	24.035	0.681
 415	1	3	0	10.331	24.035	33.684
 416	1	3	0	24.035	10.331	0.681
 417	1	3	0	17.864	10.331	27.513
 418	1	3	0	16.501	24.035	6.852
 419	1	3	0	17.864	24.035	6.852
 420	1	3	0	16.501	10.331	27.513
 421	1	3	0	16.501	24.035	27.513
 422	1	3	0	17.864	10.331	6.852
 423	1	3	0	16.501	10.331	6.852
 424	1	3	0	17.864	24.035	27.513
 425	1	3	0	10.331	17.864	27.513
 426	1	3	0	24.035	16.501	6.852
 427	1	3	0	24.035	17.864	6.852
 428	1	3	0	10.331	16.501	27.513
 429	1	3	0	10.331	16.501	6.852
 430	1	3	0	24.035	17.864	27.513
 431	1	3	0	24.035	16.501	27.513
 432	1	3	0	10.331	17.864	6.852
 433	1	2	0	24.971	24.971	5.581
 434	1	2	0	9.394	9.394	28.784
 435	1	2	0	9.394	9.394	5.581
 436	1	2	0	24.971	24.971	28.784
 437	1	2	0	9.394	24.971	28.784
 438	1	2	0	24.971	9.394	5.581
 439	1	2	0	24.971	9.394	28.784
 440	1	2	0	9.394	24.971	5.581
 441	1	2	0	5.581	24.971	24.971
 442	1	2	0	28.784	9.394	9.394
 443	1	2	0	5.581	9.394	9.394
 444	1	2	0	28.784	24.971	24.971
 445	1	2	0	28.784	9.394	24.971
 446	1	2	0	5.581	24.971	9.394
 447	1	2	0	28.784	24.971	9.394
 448	1	2	0	5.581	9.394	24.971
 449	1	2	0	24.971	5.581	24.971
 450	1	2	0	9.394	28.784	9.394
 451	1	2	0	9.394	5.581	9.394
 452	1	2	0	24.971	28.784	24.971
 453	1	2	0	24.971	28.784	9.394
 454	1	2	0	9.394	5.581	24.971
 455	1	2	0	9.394	28.784	24.971
 456	1	2	0	24.971	5.581	9.394
 457	1	2	0	24.971	7.789	22.764
 458	1	2	0	9.394	26.577	11.601
 459	1	2	0	9.394	26.577	22.764
 460	1	2	0	24.971	7.789	11.601
 461	1	2	0	9.394	7.789	11.601
 462	1	2	0	24.971	26.577	22.764
 463	1	2	0	24.971	26.577	11.601
 464	1	2	0	9.394	7.789	22.764
 465	1	2	0	5.581	7.789	7.789
 466	1	2	0	28.784	26.577	26.577
 467	1	2	0	5.581	26.577	26.577
 468	1	2	0	28.784	7.789	7.789
 469	1	2	0	28.784	26.577	7.789
 470	1	2	0	5.581	7.789	26.577
 471	1	2	0	28.784	7.789	26.577
 472	1	2	0	5.581	26.577	7.789
 473	1	2	0	24.971	22.764	7.789
 474	1	2	0	9.394	11.601	26.577
 475	1	2	0	9.394	22.764	26.577
 476	1	2	0	24.971	11.601	7.789
 477	1	2	0	24.971	11.601	26.577
 478	1	2	0	9.394	22.764	7.789
 479	1	2	0	9.394	11.601	7.789
 480	1	2	0	24.971	22.764	26.577
 481	1	2	0	7.789	24.971	22.764
 482	1	2	0	26.577	9.394	11.601
 483	1	2	0	26.577	9.394	22.764
 484	1	2	0	7.789	24.971	11.601
 485	1	2	0	26.577	24.971	11.601
 486	1	2	0	7.789	9.394	22.764
 487	1	2	0	7.789	9.394	11.601
 488	1	2	0	26.577	24.971	22.764
 489	1	2	0	22.764	24.971	7.789
 490	1	2	0	11.601	9.394	26.577
 491	1	2	0	22.764	9.394	26.577
 492	1	2	0	11.601	24.971	7.789
 493	1	2	0	11.601	9.394	7.789
 494	1	2	0	22.764	24.971	26.577
 495	1	2	0	11.601	24.971	26.577
 496	1	2	0	22.764	9.394	7.789
 497	1	2	0	7.789	5.581	7.789
 498	1	2	0	26.577	28.784	26.577
 499	1	2	0	26.577	5.581	26.577
 500	1	2	0	7.789	28.784	7.789
 501	1	2	0	7.789	28.784	26.577
 502	1	2	0	26.577	5.581	7.789
 503	1	2	0	26.577	28.784	7.789
 504	1	2	0	7.789	5.581	26.577
 505	1	2	0	7.789	7.789	5.581
 506	1	2	0	26.577	26.577	28.784
 507	1	2	0	26.577	26.577	5.581
 508	1	2	0	7.789	7.789	28.784
 509	1	2	0	26.577	7.789	28.784
 510	1	2	0	7.789	26.577	5.581
 511	1	2	0	7.789	26.577	28.784
 512	1	2	0	26.577	7.789	5.581
 513	1	2	0	22.764	7.789	24.971
 514	1	2	0	11.601	26.577	9.394
 515	1	2	0	22.764	26.577	9.394
 516	1	2	0	11.601	7.789	24.971
 517	1	2	0	11.601	26.577	24.971
 518	1	2	0	22.764	7.789	9.394
 519	1	2	0	11.601	7.789	9.394
 520	1	2	0	22.764	26.577	24.971
 521	1	2	0	7.789	22.764	24.971
 522	1	2	0	26.577	11.601	9.394
 523	1	2	0	26.577	22.764	9.394
 524	1	2	0	7.789	11.601	24.971
 525	1	2	0	7.789	11.601	9.394
 526	1	2	0	26.577	22.764	24.971
 527	1	2	0	26.577	11.601	24.971
 528	1	2	0	7.789	22.764	9.394
 529	1	5	0	27.292	27.292	3.391
 530	1	5	0	7.073	7.073	30.974
 531	1	5	0	7.073	7.073	3.391
 532	1	5	0	27.292	27.292	30.974
 533	1	5	0	7.073	27.292	30.974
 534	1	5	0	27.292	7.073	3.391
 535	1	5	0	27.292	7.073	30.974
 536	1	5	0	7.073	27.292	3.391
 537	1	5	0	3.391	27.292	27.292
 538	1	5	0	30.974	7.073	7.073
 539	1	5	0	3.391	7.073	7.073
 540	1	5	0	30.974	27.292	27.292
 541	1	5	0	30.974	7.073	27.292
 542	1	5	0	3.391	27.292	7.073
 543	1	5	0	30.974	27.292	7.073
 544	1	5	0	3.391	7.073	27.292
 545	1	5	0	27.292	3.391	27.292
 546	1	5	0	7.073	30.974	7.073
 547	1	5	0	7.073	3.391	7.073
 548	1	5	0	27.292	30.974	27.292
 549	1	5	0	27.292	30.974	7.073
 550	1	5	0	7.073	3.391	27.292
 551	1	5	0	7.073	30.974	27.292
 552	1	5	0	27.292	3.391	7.073
 553	1	5	0	27.292	10.109	20.573
 554	1	5	0	7.073	24.256	13.792
 555	1	5	0	7.073	24.256	20.573
 556	1	5	0	27.292	10.109	13.792
 557	1	5	0	7.073	10.109	13.792
 558	1	5	0	27.292	24.256	20.573
 559	1	5	0	27.292	24.256	13.792
 560	1	5	0	7.073	10.109	20.573
 561	1	5	0	3.391	10.109	10.109
 562	1	5	0	30.974	24.256	24.256
 563	1	5	0	3.391	24.256	24.256
 564	1	5	0	30.974	10.109	10.109
 565	1	5	0	30.974	24.256	10.109
 566	1	5	0	3.391	10.109	24.256
 567	1	5	0	30.974	10.109	24.256
 568	1	5	0	3.391	24.256	10.109
 569	1	5	0	27.292	20.573	10.109
 570	1	5	0	7.073	13.792	24.256
 571	1	5	0	7.073	20.573	24.256
 572	1	5	0	27.292	13.792	10.109
 573	1	5	0	27.292	13.792	24.256
 574	1	5	0	7.073	20.573	10.109
 575	1	5	0	7.073	13.792	10.109
 576	1	5	0	27.292	20.573	24.256
 577	1	5	0	10.109	27.292	20.573
 578	1	5	0	24.256	7.073	13.792
 579	1	5	0	24.256	7.073	20.573
 580	1	5	0	10.109	27.292	13.792
 581	1	5	0	24.256	27.292	13.792
 582	1	5	0	10.109	7.073	20.573
 583	1	5	0	10.109	7.073	13.792
 584	1	5	0	24.256	27.292	20.573
 585	1	5	0	20.573	27.292	10.109
 586	1	5	0	13.792	7.073	24.256
 587	1	5	0	20.573	7.073	24.256
 588	1	5	0	13.792	27.292	10.109
 589	1	5	0	13.792	7.073	10.109
 590	1	5	0	20.573	27.292	24.256
 591	1	5	0	13.792	27.292	24.256
 592	1	5	0	20.573	7.073	10.109
 593	1	5	0	10.109	3.391	10.109
 594	1	5	0	24.256	30.974	24.256
 595	1	5	0	24.256	3.391	24.256
 596	1	5	0	10.109	30.974	10.109
 597	1	5	0	10.109	30.974	24.256
 598	1	5	0	24.256	3.391	10.109
 599	1	5	0	24.256	30.974	10.109
 600	1	5	0	10.109	3.391	24.256
 601	1	5	0	10.109	10.109	3.391
 602	1	5	0	24.256	24.256	30.974
 603	1	5	0	24.256	24.256	3.391
 604	1	5	0	10.109	10.109	30.974
 605	1	5	0	24.256	10.109	30.974
 606	1	5	0	10.109	24.256	3.391
 607	1	5	0	10.109	24.256	30.974
 608	1	5	0	24.256	10.109	3.391
 609	1	5	0	20.573	10.109	27.292
 610	1	5	0	13.792	24.256	7.073
 611	1	5	0	20.573	24.256	7.073
 612	1	5	0	13.792	10.109	27.292
 613	1	5	0	13.792	24.256	27.292
 614	1	5	0	20.573	10.109	7.073
 615	1	5	0	13.792	10.109	7.073
 616	1	5	0	20.573	24.256	27.292
 617	1	5	0	10.109	20.573	27.292
 618	1	5	0	24.256	13.792	7.073
 619	1	5	0	24.256	20.573	7.073
 620	1	5	0	10.109	13.792	27.292
 621	1	5	0	10.109	13.792	7.073
 622	1	5	0	24.256	20.573	27.292
 623	1	5	0	24.256	13.792	27.292
 624	1	5	0	10.109	20.573	7.073
 625	1	5	0	28.179	28.179	1.24
 626	1	5	0	6.186	6.186	33.126
 627	1	5	0	6.186	6.186	1.24
 628	1	5	0	28.179	28.179	33.126
 629	1	5	0	6.186	28.179	33.126
 630	1	5	0	28.179	6.186	1.24
 631	1	5	0	28.179	6.186	33.126
 632	1	5	0	6.186	28.179	1.24
 633	1	5	0	1.24	28.179	28.179
 634	1	5	0	33.126	6.186	6.186
 635	1	5	0	1.24	6.186	6.186
 636	1	5	0	33.126	28.179	28.179
 637	1	5	0	33.126	6.186	28.179
 638	1	5	0	1.24	28.179	6.186
 639	1	5	0	33.126	28.179	6.186
 640	1	5	0	1.24	6.186	28.179
 641	1	5	0	28.179	1.24	28.179
 642	1	5	0	6.186	33.126	6.186
 643	1	5	0	6.186	1.24	6.186
 644	1	5	0	28.179	33.126	28.179
 645	1	5	0	28.179	33.126	6.186
 646	1	5	0	6.186	1.24	28.179
 647	1	5	0	6.186	33.126	28.179
 648	1	5	0	28.179	1.24	6.186
 649	1	5	0	28.179	10.997	18.422
 650	1	5	0	6.186	23.368	15.943
 651	1	5	0	6.186	23.368	18.422
 652	1	5	0	28.179	10.997	15.943
 653	1	5	0	6.186	10.997	15.943
 654	1	5	0	28.179	23.368	18.422
 655	1	5	0	28.179	23.368	15.943
 656	1	5	0	6.186	10.997	18.422
 657	1	5	0	1.24	10.997	10.997
 658	1	5	0	33.126	23.368	23.368
 659	1	5	0	1.24	23.368	23.368
 660	1	5	0	33.126	10.997	10.997
 661	1	5	0	33.126	23.368	10.997
 662	1	5	0	1.24	10.997	23.368
 663	1	5	0	33.126	10.997	23.368
 664	1	5	0	1.24	23.368	10.997
 665	1	5	0	28.179	18.422	10.997
 666	1	5	0	6.186	15.943	23.368
 667	1	5	0	6.186	18.422	23.368
 668	1	5	0	28.179	15.943	10.997
 669	1	5	0	28.179	15.943	23.368
 670	1	5	0	6.186	18.422	10.997
 671	1	5	0	6.186	15.943	10.997
 672	1	5	0	28.179	18.422	23.368
 673	1	5	0	10.997	28.179	18.422
 674	1	5	0	23.368	6.186	15.943
 675	1	5	0	23.368	6.186	18.422
 676	1	5	0	10.997	28.179	15.943
 677	1	5	0	23.368	28.179	15.943
 678	1	5	0	10.997	6.186	18.422
 679	1	5	0	10.997	6.186	15.943
 680	1	5	0	23.368	28.179	18.422
 681	1	5	0	18.422	28.179	10.997
 682	1	5	0	15.943	6.186	23.368
 683	1	5	0	18.422	6.186	23.368
 684	1	5	0	15.943	28.179	10.997
 685	1	5	0	15.943	6.186	10.997
 686	1	5	0	18.422	28.179	23.368
 687	1	5	0	15.943	28.179	23.368
 688	1	5	0	18.422	6.186	10.997
 689	1	5	0	10.997	1.24	10.997
 690	1	5	0	23.368	33.126	23.368
 691	1	5	0	23.368	1.24	23.368
 692	1	5	0	10.997	33.126	10.997
 693	1	5	0	10.997	33.126	23.368
 694	1	5	0	23.368	1.24	10.997
 695	1	5	0	23.368	33.126	10.997
 696	1	5	0	10.997	1.24	23.368
 697	1	5	0	10.997	10.997	1.24
 698	1	5	0	23.368	23.368	33.126
 699	1	5	0	23.368	23.368	1.24
 700	1	5	0	10.997	10.997	33.126
 701	1	5	0	23.368	10.997	33.126
 702	1	5	0	10.997	23.368	1.24
 703	1	5	0	10.997	23.368	33.126
 704	1	5	0	23.368	10.997	1.24
 705	1	5	0	18.422	10.997	28.179
 706	1	5	0	15.943	23.368	6.186
 707	1	5	0	18.422	23.368	6.186
 708	1	5	0	15.943	10.997	28.179
 709	1	5	0	15.943	23.368	28.179
 710	1	5	0	18.422	10.997	6.186
 711	1	5	0	15.943	10.997	6.186
 712	1	5	0	18.422	23.368	28.179
 713	1	5	0	10.997	18.422	28.179
 714	1	5	0	23.368	15.943	6.186
 715	1	5	0	23.368	18.422	6.186
 716	1	5	0	10.997	15.943	28.179
 717	1	5	0	10.997	15.943	6.186
 718	1	5	0	23.368	18.422	28.179
 719	1	5	0	23.368	15.943	28.179
 720	1	5	0	10.997	18.422	6.186
 721	1	2	0	25.774	25.774	8.591
 722	1	2	0	8.591	8.591	25.774
 723	1	2	0	8.591	8.591	8.591
 724	1	2	0	25.774	25.774	25.774
 725	1	2	0	8.591	25.774	25.774
 726	1	2	0	25.774	8.591	8.591
 727	1	2	0	25.774	8.591	25.774
 728	1	2	0	8.591	25.774	8.591
 729	1	4	0	24.653	24.653	7.47
 730	1	4	0	9.713	9.713	26.895
 731	1	4	0	9.713	9.713	7.47
 732	1	4	0	24.653	24.653	26.895
 733	1	4	0	9.713	24.653	26.895
 734	1	4	0	24.653	9.713	7.47
 735	1	4	0	24.653	9.713	26.895
 736	1	4	0	9.713	24.653	7.47
 737	1	4	0	7.47	24.653	24.653
 738	1	4	0	26.895	9.713	9.713
 739	1	4	0	7.47	9.713	9.713
 740	1	4	0	26.895	24.653	24.653
 741	1	4	0	26.895	9.713	24.653
 742	1	4	0	7.47	24.653	9.713
 743	1	4	0	26.895	24.653	9.713
 744	1	4	0	7.47	9.713	24.653
 745	1	4	0	24.653	7.47	24.653
 746	1	4	0	9.713	26.895	9.713
 747	1	4	0	9.713	7.47	9.713
 748	1	4	0	24.653	26.895	24.653
 749	1	4	0	24.653	26.895	9.713
 750	1	4	0	9.713	7.47	24.653
 751	1	4	0	9.713	26.895	24.653
 752	1	4	0	24.653	7.47	9.713
 753	1	4	0	7.47	7.47	7.47
 754	1	4	0	26.895	26.895	26.895
 755	1	4	0	7.47	26.895	26.895
 756	1	4	0	26.895	7.47	7.47
 757	1	4	0	26.895	26.895	7.47
 758	1	4	0	7.47	7.47	26.895
 759	1	4	0	26.895	7.47	26.895
 760	1	4	0	7.47	26.895	7.47

Velocities

   1	0.0	0.0	0.0
   2	0.0	0.0	0.0
   3	0.0	0.0	0.0
   4	0.0	0.0	0.0
   5	0.0	0.0	0.0
   6	0.0	0.0	0.0
   7	0.0	0.0	0.0
   8	0.0	0.0	0.0
   9	0.0	0.0	0.0
  10	0.0	0.0	0.0
  11	0.0	0.0	0.0
  12	0.0	0.0	0.0
  13	0.0	0.0	0.0
  14	0.0	0.0	0.0
  15	0.0	0.0	0.0
  16	0.0	0.0	0.0
  17	0.0	0.0	0.0
  18	0.0	0.0	0.0
  19	0.0	0.0	0.0
  20	0.0	0.0	0.0
  21	0.0	0.0	0.0
  22	0.0	0.0	0.0
  23	0.0	0.0	0.0
  24	0.0	0.0	0.0
  25	0.0	0.0	0.0
  26	0.0	0.0	0.0
  27	0.0	0.0	0.0
  28	0.0	0.0	0.0
  29	0.0	0.0	0.0
  30	0.0	0.0	0.0
  31	0.0	0.0	0.0
  32	0.0	0.0	0.0
  33	0.0	0.0	0.0
  34	0.0	0.0	0.0
  35	0.0	0.0	0.0
  36	0.0	0.0	0.0
  37	0.0	0.0	0.0
  38	0.0	0.0	0.0
  39	0.0	0.0	0.0
  40	0.0	0.0	0.0
  41	0.0	0.0	0.0
  42	0.0	0.0	0.0
  43	0.0	0.0	0.0
  44	0.0	0.0	0.0
  45	0.0	0.0	0.0
  46	0.0	0.0	0.0
  47	0.0	0.0	0.0
  48	0.0	0.0	0.0
  49	0.0	0.0	0.0
  50	0.0	0.0	0.0
  51	0.0	0.0	0.0
  52	0.0	0.0	0.0
  53	0.0	0.0	0.0
  54	0.0	0.0	0.0
  55	0.0	0.0	0.0
  56	0.0	0.0	0.0
  57	0.0	0.0	0.0
  58	0.0	0.0	0.0
  59	0.0	0.0	0.0
  60	0.0	0.0	0.0
  61	0.0	0.0	0.0
  62	0.0	0.0	0.0
  63	0.0	0.0	0.0
  64	0.0	0.0	0.0
  65	0.0	0.0	0.0
  66	0.0	0.0	0.0
  67	0.0	0.0	0.0
  68	0.0	0.0	0.0
  69	0.0	0.0	0.0
  70	0.0	0.0	0.0
  71	0.0	0.0	0.0
  72	0.0	0.0	0.0
  73	0.0	0.0	0.0
  74	0.0	0.0	0.0
  75	0.0	0.0	0.0
  76	0.0	0.0	0.0
  77	0.0	0.0	0.0
  78	0.0	0.0	0.0
  79	0.0	0.0	0.0
  80	0.0	0.0	0.0
  81	0.0	0.0	0.0
  82	0.0	0.0	0.0
  83	0.0	0.0	0.0
  84	0.0	0.0	0.0
  85	0.0	0.0	0.0
  86	0.0	0.0	0.0
  87	0.0	0.0	0.0
  88	0.0	0.0	0.0
  89	0.0	0.0	0.0
  90	0.0	0.0	0.0
  91	0.0	0.0	0.0
  92	0.0	0.0	0.0
  93	0.0	0.0	0.0
  94	0.0	0.0	0.0
  95	0.0	0.0	0.0
  96	0.0	0.0	0.0
  97	0.0	0.0	0.0
  98	0.0	0.0	0.0
  99	0.0	0.0	0.0
 100	0.0	0.0	0.0
 101	0.0	0.0	0.0
 102	0.0	0.0	0.0
 103	0.0	0.0	0.0
 104	0.0	0.0	0.0
 105	0.0	0.0	0.0
 106	0.0	0.0	0.0
 107	0.0	0.0	0.0
 108	0.0	0.0	0.0
 109	0.0	0.0	0.0
 110	0.0	0.0	0.0
 111	0.0	0.0	0.0
 112	0.0	0.0	0.0
 113	0.0	0.0	0.0
 114	0.0	0.0	0.0
 115	0.0	0.0	0.0
 116	0.0	0.0	0.0
 117	0.0	0.0	0.0
 118	0.0	0.0	0.0
 119	0.0	0.0	0.0
 120	0.0	0.0	0.0
 121	0.0	0.0	0.0
 122	0.0	0.0	0.0
 123	0.0	0.0	0.0
 124	0.0	0.0	0.0
 125	0.0	0.0	0.0
 126	0.0	0.0	0.0
 127	0.0	0.0	0.0
 128	0.0	0.0	0.0
 129	0.0	0.0	0.0
 130	0.0	0.0	0.0
 131	0.0	0.0	0.0
 132	0.0	0.0	0.0
 133	0.0	0.0	0.0
 134	0.0	0.0	0.0
 135	0.0	0.0	0.0
 136	0.0	0.0	0.0
 137	0.0	0.0	0.0
 138	0.0	0.0	0.0
 139	0.0	0.0	0.0
 140	0.0	0.0	0.0
 141	0.0	0.0	0.0
 142	0.0	0.0	0.0
 143	0.0	0.0	0.0
 144	0.0	0.0	0.0
 145	0.0	0.0	0.0
 146	0.0	0.0	0.0
 147	0.0	0.0	0.0
 148	0.0	0.0	0.0
 149	0.0	0.0	0.0
 150	0.0	0.0	0.0
 151	0.0	0.0	0.0
 152	0.0	0.0	0.0
 153	0.0	0.0	0.0
 154	0.0	0.0	0.0
 155	0.0	0.0	0.0
 156	0.0	0.0	0.0
 157	0.0	0.0	0.0
 158	0.0	0.0	0.0
 159	0.0	0.0	0.0
 160	0.0	0.0	0.0
 161	0.0	0.0	0.0
 162	0.0	0.0	0.0
 163	0.0	0.0	0.0
 164	0.0	0.0	0.0
 165	0.0	0.0	0.0
 166	0.0	0.0	0.0
 167	0.0	0.0	0.0
 168	0.0	0.0	0.0
 169	0.0	0.0	0.0
 170	0.0	0.0	0.0
 171	0.0	0.0	0.0
 172	0.0	0.0	0.0
 173	0.0	0.0	0.0
 174	0.0	0.0	0.0
 175	0.0	0.0	0.0
 176	0.0	0.0	0.0
 177	0.0	0.0	0.0
 178	0.0	0.0	0.0
 179	0.0	0.0	0.0
 180	0.0	0.0	0.0
 181	0.0	0.0	0.0
 182	0.0	0.0	0.0
 183	0.0	0.0	0.0
 184	0.0	0.0	0.0
 185	0.0	0.0	0.0
 186	0.0	0.0	0.0
 187	0.0	0.0	0.0
 188	0.0	0.0	0.0
 189	0.0	0.0	0.0
 190	0.0	0.0	0.0
 191	0.0	0.0	0.0
 192	0.0	0.0	0.0
 193	0.0	0.0	0.0
 194	0.0	0.0	0.0
 195	0.0	0.0	0.0
 196	0.0	0.0	0.0
 197	0.0	0.0	0.0
 198	0.0	0.0	0.0
 199	0.0	0.0	0.0
 200	0.0	0.0	0.0
 201	0.0	0.0	0.0
 202	0.0	0.0	0.0
 203	0.0	0.0	0.0
 204	0.0	0.0	0.0
 205	0.0	0.0	0.0
 206	0.0	0.0	0.0
 207	0.0	0.0	0.0
 208	0.0	0.0	0.0
 209	0.0	0.0	0.0
 210	0.0	0.0	0.0
 211	0.0	0.0	0.0
 212	0.0	0.0	0.0
 213	0.0	0.0	0.0
 214	0.0	0.0	0.0
 215	0.0	0.0	0.0
 216	0.0	0.0	0.0
 217	0.0	0.0	0.0
 218	0.0	0.0	0.0
 219	0.0	0.0	0.0
 220	0.0	0.0	0.0
 221	0.0	0.0	0.0
 222	0.0	0.0	0.0
 223	0.0	0.0	0.0
 224	0.0	0.0	0.0
 225	0.0	0.0	0.0
 226	0.0	0.0	0.0
 227	0.0	0.0	0.0
 228	0.0	0.0	0.0
 229	0.0	0.0	0.0
 230	0.0	0.0	0.0
 231	0.0	0.0	0.0
 232	0.0	0.0	0.0
 233	0.0	0.0	0.0
 234	0.0	0.0	0.0
 235	0.0	0.0	0.0
 236	0.0	0.0	0.0
 237	0.0	0.0	0.0
 238	0.0	0.0	0.0
 239	0.0	0.0	0.0
 240	0.0	0.0	0.0
 241	0.0	0.0	0.0
 242	0.0	0.0	0.0
 243	0.0	0.0	0.0
 244	0.0	0.0	0.0
 245	0.0	0.0	0.0
 246	0.0	0.0	0.0
 247	0.0	0.0	0.0
 248	0.0	0.0	0.0
 249	0.0	0.0	0.0
 250	0.0	0.0	0.0
 251	0.0	0.0	0.0
 252	0.0	0.0	0.0
 253	0.0	0.0	0.0
 254	0.0	0.0	0.0
 255	0.0	0.0	0.0
 256	0.0	0.0	0.0
 257	0.0	0.0	0.0
 258	0.0	0.0	0.0
 259	0.0	0.0	0.0
 260	0.0	0.0	0.0
 261	0.0	0.0	0.0
 262	0.0	0.0	0.0
 263	0.0	0.0	0.0
 264	0.0	0.0	0.0
 265	0.0	0.0	0.0
 266	0.0	0.0	0.0
 267	0.0	0.0	0.0
 268	0.0	0.0	0.0
 269	0.0	0.0	0.0
 270	0.0	0.0	0.0
 271	0.0	0.0	0.0
 272	0.0	0.0	0.0
 273	0.0	0.0	0.0
 274	0.0	0.0	0.0
 275	0.0	0.0	0.0
 276	0.0	0.0	0.0
 277	0.0	0.0	0.0
 278	0.0	0.0	0.0
 279	0.0	0.0	0.0
 280	0.0	0.0	0.0
 281	0.0	0.0	0.0
 282	0.0	0.0	0.0
 283	0.0	0.0	0.0
 284	0.0	0.0	0.0
 285	0.0	0.0	0.0
 286	0.0	0.0	0.0
 287	0.0	0.0	0.0
 288	0.0	0.0	0.0
 289	0.0	0.0	0.0
 290	0.0	0.0	0.0
 291	0.0	0.0	0.0
 292	0.0	0.0	0.0
 293	0.0	0.0	0.0
 294	0.0	0.0	0.0
 295	0.0	0.0	0.0
 296	0.0	0.0	0.0
 297	0.0	0.0	0.0
 298	0.0	0.0	0.0
 299	0.0	0.0	0.0
 300	0.0	0.0	0.0
 301	0.0	0.0	0.0
 302	0.0	0.0	0.0
 303	0.0	0.0	0.0
 304	0.0	0.0	0.0
 305	0.0	0.0	0.0
 306	0.0	0.0	0.0
 307	0.0	0.0	0.0
 308	0.0	0.0	0.0
 309	0.0	0.0	0.0
 310	0.0	0.0	0.0
 311	0.0	0.0	0.0
 312	0.0	0.0	0.0
 313	0.0	0.0	0.0
 314	0.0	0.0	0.0
 315	0.0	0.0	0.0
 316	0.0	0.0	0.0
 317	0.0	0.0	0.0
 318	0.0	0.0	0.0
 319	0.0	0.0	0.0
 320	0.0	0.0	0.0
 321	0.0	0.0	0.0
 322	0.0	0.0	0.0
 323	0.0	0.0	0.0
 324	0.0	0.0	0.0
 325	0.0	0.0	0.0
 326	0.0	0.0	0.0
 327	0.0	0.0	0.0
 328	0.0	0.0	0.0
 329	0.0	0.0	0.0
 330	0.0	0.0	0.0
 331	0.0	0.0	0.0
 332	0.0	0.0	0.0
 333	0.0	0.0	0.0
 334	0.0	0.0	0.0
 335	0.0	0.0	0.0
 336	0.0	0.0	0.0
 337	0.0	0.0	0.0
 338	0.0	0.0	0.0
 339	0.0	0.0	0.0
 340	0.0	0.0	0.0
 341	0.0	0.0	0.0
 342	0.0	0.0	0.0
 343	0.0	0.0	0.0
 344	0.0	0.0	0.0
 345	0.0	0.0	0.0
 346	0.0	0.0	0.0
 347	0.0	0.0	0.0
 348	0.0	0.0	0.0
 349	0.0	0.0	0.0
 350	0.0	0.0	0.0
 351	0.0	0.0	0.0
 352	0.0	0.0	0.0
 353	0.0	0.0	0.0
 354	0.0	0.0	0.0
 355	0.0	0.0	0.0
 356	0.0	0.0	0.0
 357	0.0	0.0	0.0
 358	0.0	0.0	0.0
 359	0.0	0.0	0.0
 360	0.0	0.0	0.0
 361	0.0	0.0	0.0
 362	0.0	0.0	0.0
 363	0.0	0.0	0.0
 364	0.0	0.0	0.0
 365	0.0	0.0	0.0