Created on Sun Oct 30 10:44:18 2016

424 atoms
512 bonds
912 angles
960 dihedrals
192 impropers

4 atom types
4 bond types
3 angle types
2 dihedral types
1 improper types

0.000000 25.832000 xlo xhi
0.000000 25.832000 ylo yhi
0.000000 25.832000 zlo zhi

Masses

   1	65.38	# Zn
   2	15.9994	# O_3
   3	12.0107	# C_R
   4	1.00794	# H_

Pair Coeffs

   1	0.055	4.04468	# Zn
   2	0.0957	3.033154	# O_3
   3	0.0951	3.47299	# C_R
   4	0.0152	2.846421	# H_

Bond Coeffs

   1	350.0	1.98	# Zn,O_3
   2	350.0	1.02	# C_R,H_
   3	525.0	1.39	# C_R,C_R
   4	350.0	1.35	# O_3,C_R

Angle Coeffs

   1	50.0	120.0	# X,C_R,X
   2	50.0	109.471	# X,Zn,X
   3	50.0	104.51	# X,O_3,X

Dihedral Coeffs

   1	0.166666666667	-1	2	# X,O_3,C_R,X
   2	3.125	-1	2	# X,C_R,C_R,X

Improper Coeffs

   1	20.0	0.0	# C_R,X,X,X

Atoms

   1	1	1	0	7.57598	5.34002	5.34002
   2	1	1	0	7.57598	18.256	18.256
   3	1	1	0	18.256	20.492	5.34002
   4	1	1	0	18.256	7.57598	18.256
   5	1	1	0	5.34002	7.57598	5.34002
   6	1	1	0	18.256	5.34002	20.492
   7	1	1	0	18.256	18.256	7.57598
   8	1	1	0	5.34002	5.34002	7.57598
   9	1	1	0	7.57598	20.492	20.492
  10	1	1	0	7.57598	7.57598	7.57598
  11	1	1	0	5.34002	18.256	20.492
  12	1	1	0	20.492	18.256	5.34002
  13	1	1	0	20.492	7.57598	20.492
  14	1	1	0	20.492	5.34002	18.256
  15	1	1	0	5.34002	20.492	18.256
  16	1	1	0	20.492	20.492	7.57598
  17	1	1	0	5.34002	7.57598	20.492
  18	1	1	0	20.492	18.256	20.492
  19	1	1	0	20.492	5.34002	7.57598
  20	1	1	0	7.57598	5.34002	20.492
  21	1	1	0	5.34002	18.256	5.34002
  22	1	1	0	20.492	7.57598	5.34002
  23	1	1	0	7.57598	7.57598	18.256
  24	1	1	0	7.57598	18.256	7.57598
  25	1	1	0	18.256	5.34002	5.34002
  26	1	1	0	18.256	18.256	18.256
  27	1	1	0	18.256	20.492	20.492
  28	1	1	0	18.256	7.57598	7.57598
  29	1	1	0	5.34002	20.492	7.57598
  30	1	1	0	7.57598	20.492	5.34002
  31	1	1	0	5.34002	5.34002	18.256
  32	1	1	0	20.492	20.492	18.256
  33	1	2	0	6.458	6.458	6.458
  34	1	2	0	19.374	19.374	6.458
  35	1	2	0	19.374	6.458	19.374
  36	1	2	0	6.458	19.374	19.374
  37	1	2	0	6.458	6.458	19.374
  38	1	2	0	19.374	19.374	19.374
  39	1	2	0	19.374	6.458	6.458
  40	1	2	0	6.458	19.374	6.458
  41	1	2	0	7.33067	5.58533	3.40593
  42	1	3	0	7.31537	5.60063	0.698746
  43	1	4	0	7.95871	4.95729	1.16675
  44	1	2	0	7.33067	18.5013	16.3219
  45	1	3	0	7.31537	18.5166	13.6147
  46	1	4	0	7.95871	17.8733	14.0828
  47	1	2	0	18.5013	20.2467	3.40593
  48	1	3	0	18.5166	20.2314	0.698746
  49	1	4	0	17.8733	20.8747	1.16675
  50	1	2	0	18.5013	7.33067	16.3219
  51	1	3	0	18.5166	7.31537	13.6147
  52	1	4	0	17.8733	7.95871	14.0828
  53	1	2	0	5.58533	7.33067	3.40593
  54	1	3	0	5.60063	7.31537	0.698746
  55	1	4	0	4.95729	7.95871	1.16675
  56	1	2	0	18.5013	5.58533	22.4261
  57	1	3	0	18.5166	5.60063	25.1333
  58	1	4	0	17.8733	4.95729	24.6652
  59	1	2	0	18.5013	18.5013	9.51007
  60	1	3	0	18.5166	18.5166	12.2173
  61	1	4	0	17.8733	17.8733	11.7492
  62	1	2	0	5.58533	5.58533	9.51007
  63	1	3	0	5.60063	5.60063	12.2173
  64	1	4	0	4.95729	4.95729	11.7492
  65	1	2	0	7.33067	20.2467	22.4261
  66	1	3	0	7.31537	20.2314	25.1333
  67	1	4	0	7.95871	20.8747	24.6652
  68	1	2	0	7.33067	7.33067	9.51007
  69	1	3	0	7.31537	7.31537	12.2173
  70	1	4	0	7.95871	7.95871	11.7492
  71	1	2	0	3.40593	7.33067	5.58533
  72	1	3	0	0.698746	7.31537	5.60063
  73	1	4	0	1.16675	7.95871	4.95729
  74	1	2	0	16.3219	7.33067	18.5013
  75	1	3	0	13.6147	7.31537	18.5166
  76	1	4	0	14.0828	7.95871	17.8733
  77	1	2	0	3.40593	18.5013	20.2467
  78	1	3	0	0.698746	18.5166	20.2314
  79	1	4	0	1.16675	17.8733	20.8747
  80	1	2	0	3.40593	5.58533	7.33067
  81	1	3	0	0.698746	5.60063	7.31537
  82	1	4	0	1.16675	4.95729	7.95871
  83	1	2	0	16.3219	18.5013	7.33067
  84	1	3	0	13.6147	18.5166	7.31537
  85	1	4	0	14.0828	17.8733	7.95871
  86	1	2	0	22.4261	18.5013	5.58533
  87	1	3	0	25.1333	18.5166	5.60063
  88	1	4	0	24.6652	17.8733	4.95729
  89	1	2	0	9.51007	18.5013	18.5013
  90	1	3	0	12.2173	18.5166	18.5166
  91	1	4	0	11.7492	17.8733	17.8733
  92	1	2	0	9.51007	5.58533	5.58533
  93	1	3	0	12.2173	5.60063	5.60063
  94	1	4	0	11.7492	4.95729	4.95729
  95	1	2	0	22.4261	7.33067	20.2467
  96	1	3	0	25.1333	7.31537	20.2314
  97	1	4	0	24.6652	7.95871	20.8747
  98	1	2	0	9.51007	7.33067	7.33067
  99	1	3	0	12.2173	7.31537	7.31537
 100	1	4	0	11.7492	7.95871	7.95871
 101	1	2	0	5.58533	3.40593	7.33067
 102	1	3	0	5.60063	0.698746	7.31537
 103	1	4	0	4.95729	1.16675	7.95871
 104	1	2	0	5.58533	16.3219	20.2467
 105	1	3	0	5.60063	13.6147	20.2314
 106	1	4	0	4.95729	14.0828	20.8747
 107	1	2	0	20.2467	3.40593	18.5013
 108	1	3	0	20.2314	0.698746	18.5166
 109	1	4	0	20.8747	1.16675	17.8733
 110	1	2	0	20.2467	16.3219	5.58533
 111	1	3	0	20.2314	13.6147	5.60063
 112	1	4	0	20.8747	14.0828	4.95729
 113	1	2	0	7.33067	3.40593	5.58533
 114	1	3	0	7.31537	0.698746	5.60063
 115	1	4	0	7.95871	1.16675	4.95729
 116	1	2	0	5.58533	22.4261	18.5013
 117	1	3	0	5.60063	25.1333	18.5166
 118	1	4	0	4.95729	24.6652	17.8733
 119	1	2	0	5.58533	9.51007	5.58533
 120	1	3	0	5.60063	12.2173	5.60063
 121	1	4	0	4.95729	11.7492	4.95729
 122	1	2	0	20.2467	22.4261	7.33067
 123	1	3	0	20.2314	25.1333	7.31537
 124	1	4	0	20.8747	24.6652	7.95871
 125	1	2	0	20.2467	9.51007	20.2467
 126	1	3	0	20.2314	12.2173	20.2314
 127	1	4	0	20.8747	11.7492	20.8747
 128	1	2	0	7.33067	9.51007	7.33067
 129	1	3	0	7.31537	12.2173	7.31537
 130	1	4	0	7.95871	11.7492	7.95871
 131	1	2	0	5.58533	7.33067	22.4261
 132	1	3	0	5.60063	7.31537	25.1333
 133	1	4	0	4.95729	7.95871	24.6652
 134	1	2	0	5.58533	20.2467	9.51007
 135	1	3	0	5.60063	20.2314	12.2173
 136	1	4	0	4.95729	20.8747	11.7492
 137	1	2	0	20.2467	18.5013	22.4261
 138	1	3	0	20.2314	18.5166	25.1333
 139	1	4	0	20.8747	17.8733	24.6652
 140	1	2	0	20.2467	5.58533	9.51007
 141	1	3	0	20.2314	5.60063	12.2173
 142	1	4	0	20.8747	4.95729	11.7492
 143	1	2	0	7.33067	5.58533	22.4261
 144	1	3	0	7.31537	5.60063	25.1333
 145	1	4	0	7.95871	4.95729	24.6652
 146	1	2	0	5.58533	18.5013	3.40593
 147	1	3	0	5.60063	18.5166	0.698746
 148	1	4	0	4.95729	17.8733	1.16675
 149	1	2	0	5.58533	5.58533	16.3219
 150	1	3	0	5.60063	5.60063	13.6147
 151	1	4	0	4.95729	4.95729	14.0828
 152	1	2	0	20.2467	7.33067	3.40593
 153	1	3	0	20.2314	7.31537	0.698746
 154	1	4	0	20.8747	7.95871	1.16675
 155	1	2	0	20.2467	20.2467	16.3219
 156	1	3	0	20.2314	20.2314	13.6147
 157	1	4	0	20.8747	20.8747	14.0828
 158	1	2	0	7.33067	7.33067	16.3219
 159	1	3	0	7.31537	7.31537	13.6147
 160	1	4	0	7.95871	7.95871	14.0828
 161	1	2	0	7.33067	3.40593	20.2467
 162	1	3	0	7.31537	0.698746	20.2314
 163	1	4	0	7.95871	1.16675	20.8747
 164	1	2	0	7.33067	16.3219	7.33067
 165	1	3	0	7.31537	13.6147	7.31537
 166	1	4	0	7.95871	14.0828	7.95871
 167	1	2	0	18.5013	3.40593	5.58533
 168	1	3	0	18.5166	0.698746	5.60063
 169	1	4	0	17.8733	1.16675	4.95729
 170	1	2	0	18.5013	16.3219	18.5013
 171	1	3	0	18.5166	13.6147	18.5166
 172	1	4	0	17.8733	14.0828	17.8733
 173	1	2	0	5.58533	16.3219	5.58533
 174	1	3	0	5.60063	13.6147	5.60063
 175	1	4	0	4.95729	14.0828	4.95729
 176	1	2	0	18.5013	22.4261	20.2467
 177	1	3	0	18.5166	25.1333	20.2314
 178	1	4	0	17.8733	24.6652	20.8747
 179	1	2	0	18.5013	9.51007	7.33067
 180	1	3	0	18.5166	12.2173	7.31537
 181	1	4	0	17.8733	11.7492	7.95871
 182	1	2	0	5.58533	22.4261	7.33067
 183	1	3	0	5.60063	25.1333	7.31537
 184	1	4	0	4.95729	24.6652	7.95871
 185	1	2	0	7.33067	22.4261	5.58533
 186	1	3	0	7.31537	25.1333	5.60063
 187	1	4	0	7.95871	24.6652	4.95729
 188	1	2	0	7.33067	9.51007	18.5013
 189	1	3	0	7.31537	12.2173	18.5166
 190	1	4	0	7.95871	11.7492	17.8733
 191	1	2	0	3.40593	5.58533	18.5013
 192	1	3	0	0.698746	5.60063	18.5166
 193	1	4	0	1.16675	4.95729	17.8733
 194	1	2	0	16.3219	5.58533	5.58533
 195	1	3	0	13.6147	5.60063	5.60063
 196	1	4	0	14.0828	4.95729	4.95729
 197	1	2	0	3.40593	20.2467	7.33067
 198	1	3	0	0.698746	20.2314	7.31537
 199	1	4	0	1.16675	20.8747	7.95871
 200	1	2	0	16.3219	20.2467	20.2467
 201	1	3	0	13.6147	20.2314	20.2314
 202	1	4	0	14.0828	20.8747	20.8747
 203	1	2	0	16.3219	7.33067	7.33067
 204	1	3	0	13.6147	7.31537	7.31537
 205	1	4	0	14.0828	7.95871	7.95871
 206	1	2	0	22.4261	5.58533	7.33067
 207	1	3	0	25.1333	5.60063	7.31537
 208	1	4	0	24.6652	4.95729	7.95871
 209	1	2	0	9.51007	5.58533	20.2467
 210	1	3	0	12.2173	5.60063	20.2314
 211	1	4	0	11.7492	4.95729	20.8747
 212	1	2	0	22.4261	20.2467	18.5013
 213	1	3	0	25.1333	20.2314	18.5166
 214	1	4	0	24.6652	20.8747	17.8733
 215	1	2	0	22.4261	7.33067	5.58533
 216	1	3	0	25.1333	7.31537	5.60063
 217	1	4	0	24.6652	7.95871	4.95729
 218	1	2	0	9.51007	20.2467	5.58533
 219	1	3	0	12.2173	20.2314	5.60063
 220	1	4	0	11.7492	20.8747	4.95729
 221	1	2	0	18.5013	20.2467	22.4261
 222	1	3	0	18.5166	20.2314	25.1333
 223	1	4	0	17.8733	20.8747	24.6652
 224	1	2	0	18.5013	7.33067	9.51007
 225	1	3	0	18.5166	7.31537	12.2173
 226	1	4	0	17.8733	7.95871	11.7492
 227	1	2	0	7.33067	18.5013	9.51007
 228	1	3	0	7.31537	18.5166	12.2173
 229	1	4	0	7.95871	17.8733	11.7492
 230	1	2	0	7.33067	20.2467	3.40593
 231	1	3	0	7.31537	20.2314	0.698746
 232	1	4	0	7.95871	20.8747	1.16675
 233	1	2	0	18.5013	5.58533	3.40593
 234	1	3	0	18.5166	5.60063	0.698746
 235	1	4	0	17.8733	4.95729	1.16675
 236	1	2	0	18.5013	18.5013	16.3219
 237	1	3	0	18.5166	18.5166	13.6147
 238	1	4	0	17.8733	17.8733	14.0828
 239	1	2	0	22.4261	18.5013	20.2467
 240	1	3	0	25.1333	18.5166	20.2314
 241	1	4	0	24.6652	17.8733	20.8747
 242	1	2	0	9.51007	18.5013	7.33067
 243	1	3	0	12.2173	18.5166	7.31537
 244	1	4	0	11.7492	17.8733	7.95871
 245	1	2	0	9.51007	7.33067	18.5013
 246	1	3	0	12.2173	7.31537	18.5166
 247	1	4	0	11.7492	7.95871	17.8733
 248	1	2	0	3.40593	7.33067	20.2467
 249	1	3	0	0.698746	7.31537	20.2314
 250	1	4	0	1.16675	7.95871	20.8747
 251	1	2	0	3.40593	18.5013	5.58533
 252	1	3	0	0.698746	18.5166	5.60063
 253	1	4	0	1.16675	17.8733	4.95729
 254	1	2	0	16.3219	18.5013	18.5013
 255	1	3	0	13.6147	18.5166	18.5166
 256	1	4	0	14.0828	17.8733	17.8733
 257	1	2	0	20.2467	22.4261	18.5013
 258	1	3	0	20.2314	25.1333	18.5166
 259	1	4	0	20.8747	24.6652	17.8733
 260	1	2	0	20.2467	9.51007	5.58533
 261	1	3	0	20.2314	12.2173	5.60063
 262	1	4	0	20.8747	11.7492	4.95729
 263	1	2	0	5.58533	9.51007	20.2467
 264	1	3	0	5.60063	12.2173	20.2314
 265	1	4	0	4.95729	11.7492	20.8747
 266	1	2	0	20.2467	3.40593	7.33067
 267	1	3	0	20.2314	0.698746	7.31537
 268	1	4	0	20.8747	1.16675	7.95871
 269	1	2	0	20.2467	16.3219	20.2467
 270	1	3	0	20.2314	13.6147	20.2314
 271	1	4	0	20.8747	14.0828	20.8747
 272	1	2	0	5.58533	3.40593	18.5013
 273	1	3	0	5.60063	0.698746	18.5166
 274	1	4	0	4.95729	1.16675	17.8733
 275	1	2	0	20.2467	18.5013	3.40593
 276	1	3	0	20.2314	18.5166	0.698746
 277	1	4	0	20.8747	17.8733	1.16675
 278	1	2	0	20.2467	5.58533	16.3219
 279	1	3	0	20.2314	5.60063	13.6147
 280	1	4	0	20.8747	4.95729	14.0828
 281	1	2	0	5.58533	20.2467	16.3219
 282	1	3	0	5.60063	20.2314	13.6147
 283	1	4	0	4.95729	20.8747	14.0828
 284	1	2	0	20.2467	7.33067	22.4261
 285	1	3	0	20.2314	7.31537	25.1333
 286	1	4	0	20.8747	7.95871	24.6652
 287	1	2	0	20.2467	20.2467	9.51007
 288	1	3	0	20.2314	20.2314	12.2173
 289	1	4	0	20.8747	20.8747	11.7492
 290	1	2	0	5.58533	18.5013	22.4261
 291	1	3	0	5.60063	18.5166	25.1333
 292	1	4	0	4.95729	17.8733	24.6652
 293	1	2	0	18.5013	22.4261	5.58533
 294	1	3	0	18.5166	25.1333	5.60063
 295	1	4	0	17.8733	24.6652	4.95729
 296	1	2	0	18.5013	9.51007	18.5013
 297	1	3	0	18.5166	12.2173	18.5166
 298	1	4	0	17.8733	11.7492	17.8733
 299	1	2	0	7.33067	22.4261	20.2467
 300	1	3	0	7.31537	25.1333	20.2314
 301	1	4	0	7.95871	24.6652	20.8747
 302	1	2	0	7.33067	16.3219	18.5013
 303	1	3	0	7.31537	13.6147	18.5166
 304	1	4	0	7.95871	14.0828	17.8733
 305	1	2	0	18.5013	3.40593	20.2467
 306	1	3	0	18.5166	0.698746	20.2314
 307	1	4	0	17.8733	1.16675	20.8747
 308	1	2	0	18.5013	16.3219	7.33067
 309	1	3	0	18.5166	13.6147	7.31537
 310	1	4	0	17.8733	14.0828	7.95871
 311	1	2	0	22.4261	20.2467	7.33067
 312	1	3	0	25.1333	20.2314	7.31537
 313	1	4	0	24.6652	20.8747	7.95871
 314	1	2	0	9.51007	20.2467	20.2467
 315	1	3	0	12.2173	20.2314	20.2314
 316	1	4	0	11.7492	20.8747	20.8747
 317	1	2	0	22.4261	5.58533	18.5013
 318	1	3	0	25.1333	5.60063	18.5166
 319	1	4	0	24.6652	4.95729	17.8733
 320	1	2	0	3.40593	20.2467	18.5013
 321	1	3	0	0.698746	20.2314	18.5166
 322	1	4	0	1.16675	20.8747	17.8733
 323	1	2	0	16.3219	20.2467	5.58533
 324	1	3	0	13.6147	20.2314	5.60063
 325	1	4	0	14.0828	20.8747	4.95729
 326	1	2	0	16.3219	5.58533	20.2467
 327	1	3	0	13.6147	5.60063	20.2314
 328	1	4	0	14.0828	4.95729	20.8747
 329	1	3	0	6.458	6.458	2.83897
 330	1	3	0	6.458	6.458	1.43006
 331	1	3	0	6.458	19.374	15.755
 332	1	3	0	6.458	19.374	14.3461
 333	1	3	0	19.374	19.374	2.83897
 334	1	3	0	19.374	19.374	1.43006
 335	1	3	0	19.374	6.458	15.755
 336	1	3	0	19.374	6.458	14.3461
 337	1	3	0	19.374	6.458	22.993
 338	1	3	0	19.374	6.458	24.4019
 339	1	3	0	19.374	19.374	10.077
 340	1	3	0	19.374	19.374	11.4859
 341	1	3	0	6.458	6.458	10.077
 342	1	3	0	6.458	6.458	11.4859
 343	1	3	0	6.458	19.374	22.993
 344	1	3	0	6.458	19.374	24.4019
 345	1	3	0	2.83897	6.458	6.458
 346	1	3	0	1.43006	6.458	6.458
 347	1	3	0	15.755	6.458	19.374
 348	1	3	0	14.3461	6.458	19.374
 349	1	3	0	2.83897	19.374	19.374
 350	1	3	0	1.43006	19.374	19.374
 351	1	3	0	15.755	19.374	6.458
 352	1	3	0	14.3461	19.374	6.458
 353	1	3	0	22.993	19.374	6.458
 354	1	3	0	24.4019	19.374	6.458
 355	1	3	0	10.077	19.374	19.374
 356	1	3	0	11.4859	19.374	19.374
 357	1	3	0	10.077	6.458	6.458
 358	1	3	0	11.4859	6.458	6.458
 359	1	3	0	22.993	6.458	19.374
 360	1	3	0	24.4019	6.458	19.374
 361	1	3	0	6.458	2.83897	6.458
 362	1	3	0	6.458	1.43006	6.458
 363	1	3	0	6.458	15.755	19.374
 364	1	3	0	6.458	14.3461	19.374
 365	1	3	0	19.374	2.83897	19.374
 366	1	3	0	19.374	1.43006	19.374
 367	1	3	0	19.374	15.755	6.458
 368	1	3	0	19.374	14.3461	6.458
 369	1	3	0	6.458	22.993	19.374
 370	1	3	0	6.458	24.4019	19.374
 371	1	3	0	6.458	10.077	6.458
 372	1	3	0	6.458	11.4859	6.458
 373	1	3	0	19.374	22.993	6.458
 374	1	3	0	19.374	24.4019	6.458
 375	1	3	0	19.374	10.077	19.374
 376	1	3	0	19.374	11.4859	19.374
 377	1	3	0	6.458	6.458	22.993
 378	1	3	0	6.458	6.458	24.4019
 379	1	3	0	6.458	19.374	10.077
 380	1	3	0	6.458	19.374	11.4859
 381	1	3	0	19.374	19.374	22.993
 382	1	3	0	19.374	19.374	24.4019
 383	1	3	0	19.374	6.458	10.077
 384	1	3	0	19.374	6.458	11.4859
 385	1	3	0	6.458	19.374	2.83897
 386	1	3	0	6.458	19.374	1.43006
 387	1	3	0	6.458	6.458	15.755
 388	1	3	0	6.458	6.458	14.3461
 389	1	3	0	19.374	6.458	2.83897
 390	1	3	0	19.374	6.458	1.43006
 391	1	3	0	19.374	19.374	15.755
 392	1	3	0	19.374	19.374	14.3461
 393	1	3	0	6.458	2.83897	19.374
 394	1	3	0	6.458	1.43006	19.374
 395	1	3	0	6.458	15.755	6.458
 396	1	3	0	6.458	14.3461	6.458
 397	1	3	0	19.374	2.83897	6.458
 398	1	3	0	19.374	1.43006	6.458
 399	1	3	0	19.374	15.755	19.374
 400	1	3	0	19.374	14.3461	19.374
 401	1	3	0	19.374	22.993	19.374
 402	1	3	0	19.374	24.4019	19.374
 403	1	3	0	19.374	10.077	6.458
 404	1	3	0	19.374	11.4859	6.458
 405	1	3	0	6.458	22.993	6.458
 406	1	3	0	6.458	24.4019	6.458
 407	1	3	0	6.458	10.077	19.374
 408	1	3	0	6.458	11.4859	19.374
 409	1	3	0	2.83897	6.458	19.374
 410	1	3	0	1.43006	6.458	19.374
 411	1	3	0	15.755	6.458	6.458
 412	1	3	0	14.3461	6.458	6.458
 413	1	3	0	2.83897	19.374	6.458
 414	1	3	0	1.43006	19.374	6.458
 415	1	3	0	15.755	19.374	19.374
 416	1	3	0	14.3461	19.374	19.374
 417	1	3	0	22.993	6.458	6.458
 418	1	3	0	24.4019	6.458	6.458
 419	1	3	0	10.077	6.458	19.374
 420	1	3	0	11.4859	6.458	19.374
 421	1	3	0	22.993	19.374	19.374
 422	1	3	0	24.4019	19.374	19.374
 423	1	3	0	10.077	19.374	6.458
 424	1	3	0	11.4859	19.374	6.458

Velocities

   1	-3.64772e-07	3.64772e-07	3.64772e-07
   2	-3.64772e-07	3.64772e-07	3.64772e-07
   3	3.64772e-07	-3.64772e-07	3.64772e-07
   4	3.64772e-07	-3.64772e-07	3.64772e-07
   5	3.64772e-07	-3.64772e-07	3.64772e-07
   6	3.64772e-07	3.64772e-07	-3.64772e-07
   7	3.64772e-07	3.64772e-07	-3.64772e-07
   8	3.64772e-07	3.64772e-07	-3.64772e-07
   9	-3.64772e-07	-3.64772e-07	-3.64772e-07
  10	-3.64772e-07	-3.64772e-07	-3.64772e-07
  11	3.64772e-07	3.64772e-07	-3.64772e-07
  12	-3.64772e-07	3.64772e-07	3.64772e-07
  13	-3.64772e-07	-3.64772e-07	-3.64772e-07
  14	-3.64772e-07	3.64772e-07	3.64772e-07
  15	3.64772e-07	-3.64772e-07	3.64772e-07
  16	-3.64772e-07	-3.64772e-07	-3.64772e-07
  17	3.64772e-07	-3.64772e-07	-3.64772e-07
  18	-3.64772e-07	3.64772e-07	-3.64772e-07
  19	-3.64772e-07	3.64772e-07	-3.64772e-07
  20	-3.64772e-07	3.64772e-07	-3.64772e-07
  21	3.64772e-07	3.64772e-07	3.64772e-07
  22	-3.64772e-07	-3.64772e-07	3.64772e-07
  23	-3.64772e-07	-3.64772e-07	3.64772e-07
  24	-3.64772e-07	3.64772e-07	-3.64772e-07
  25	3.64772e-07	3.64772e-07	3.64772e-07
  26	3.64772e-07	3.64772e-07	3.64772e-07
  27	3.64772e-07	-3.64772e-07	-3.64772e-07
  28	3.64772e-07	-3.64772e-07	-3.64772e-07
  29	3.64772e-07	-3.64772e-07	-3.64772e-07
  30	-3.64772e-07	-3.64772e-07	3.64772e-07
  31	3.64772e-07	3.64772e-07	3.64772e-07
  32	-3.64772e-07	-3.64772e-07	3.64772e-07
  33	-2.88418e-17	-1.74395e-17	-3.65243e-17
  34	2.47062e-16	1.73405e-16	3.27639e-16
  35	2.7057e-16	9.94832e-17	5.80438e-16
  36	-3.22898e-16	1.14231e-17	-2.37295e-16
  37	-6.8423e-17	-9.19706e-17	1.30951e-16
  38	6.02979e-16	2.69255e-16	2.71019e-16
  39	2.88148e-16	1.33899e-16	-2.43705e-16
  40	-1.15379e-16	1.85657e-16	-5.59498e-18
  41	4.32325e-07	-4.32325e-07	-7.98626e-08
  42	-3.10604e-08	3.10604e-08	-1.44329e-07
  43	1.2778e-06	-1.2778e-06	9.15061e-07
  44	4.32325e-07	-4.32325e-07	-7.98626e-08
  45	-3.10604e-08	3.10604e-08	-1.44329e-07
  46	1.2778e-06	-1.2778e-06	9.15061e-07
  47	-4.32325e-07	4.32325e-07	-7.98626e-08
  48	3.10604e-08	-3.10604e-08	-1.44329e-07
  49	-1.2778e-06	1.2778e-06	9.15061e-07
  50	-4.32325e-07	4.32325e-07	-7.98626e-08
  51	3.10604e-08	-3.10604e-08	-1.44329e-07
  52	-1.2778e-06	1.2778e-06	9.15061e-07
  53	-4.32325e-07	4.32325e-07	-7.98626e-08
  54	3.10604e-08	-3.10604e-08	-1.44329e-07
  55	-1.2778e-06	1.2778e-06	9.15061e-07
  56	-4.32325e-07	-4.32325e-07	7.98626e-08
  57	3.10604e-08	3.10604e-08	1.44329e-07
  58	-1.2778e-06	-1.2778e-06	-9.15061e-07
  59	-4.32325e-07	-4.32325e-07	7.98626e-08
  60	3.10604e-08	3.10604e-08	1.44329e-07
  61	-1.2778e-06	-1.2778e-06	-9.15061e-07
  62	-4.32325e-07	-4.32325e-07	7.98626e-08
  63	3.10604e-08	3.10604e-08	1.44329e-07
  64	-1.2778e-06	-1.2778e-06	-9.15061e-07
  65	4.32325e-07	4.32325e-07	7.98626e-08
  66	-3.10604e-08	-3.10604e-08	1.44329e-07
  67	1.2778e-06	1.2778e-06	-9.15061e-07
  68	4.32325e-07	4.32325e-07	7.98626e-08
  69	-3.10604e-08	-3.10604e-08	1.44329e-07
  70	1.2778e-06	1.2778e-06	-9.15061e-07
  71	-7.98626e-08	4.32325e-07	-4.32325e-07
  72	-1.44329e-07	-3.10604e-08	3.10604e-08
  73	9.15061e-07	1.2778e-06	-1.2778e-06
  74	-7.98626e-08	4.32325e-07	-4.32325e-07
  75	-1.44329e-07	-3.10604e-08	3.10604e-08
  76	9.15061e-07	1.2778e-06	-1.2778e-06
  77	-7.98626e-08	-4.32325e-07	4.32325e-07
  78	-1.44329e-07	3.10604e-08	-3.10604e-08
  79	9.15061e-07	-1.2778e-06	1.2778e-06
  80	-7.98626e-08	-4.32325e-07	4.32325e-07
  81	-1.44329e-07	3.10604e-08	-3.10604e-08
  82	9.15061e-07	-1.2778e-06	1.2778e-06
  83	-7.98626e-08	-4.32325e-07	4.32325e-07
  84	-1.44329e-07	3.10604e-08	-3.10604e-08
  85	9.15061e-07	-1.2778e-06	1.2778e-06
  86	7.98626e-08	-4.32325e-07	-4.32325e-07
  87	1.44329e-07	3.10604e-08	3.10604e-08
  88	-9.15061e-07	-1.2778e-06	-1.2778e-06
  89	7.98626e-08	-4.32325e-07	-4.32325e-07
  90	1.44329e-07	3.10604e-08	3.10604e-08
  91	-9.15061e-07	-1.2778e-06	-1.2778e-06
  92	7.98626e-08	-4.32325e-07	-4.32325e-07
  93	1.44329e-07	3.10604e-08	3.10604e-08
  94	-9.15061e-07	-1.2778e-06	-1.2778e-06
  95	7.98626e-08	4.32325e-07	4.32325e-07
  96	1.44329e-07	-3.10604e-08	-3.10604e-08
  97	-9.15061e-07	1.2778e-06	1.2778e-06
  98	7.98626e-08	4.32325e-07	4.32325e-07
  99	1.44329e-07	-3.10604e-08	-3.10604e-08
 100	-9.15061e-07	1.2778e-06	1.2778e-06
 101	-4.32325e-07	-7.98626e-08	4.32325e-07
 102	3.10604e-08	-1.44329e-07	-3.10604e-08
 103	-1.2778e-06	9.15061e-07	1.2778e-06
 104	-4.32325e-07	-7.98626e-08	4.32325e-07
 105	3.10604e-08	-1.44329e-07	-3.10604e-08
 106	-1.2778e-06	9.15061e-07	1.2778e-06
 107	4.32325e-07	-7.98626e-08	-4.32325e-07
 108	-3.10604e-08	-1.44329e-07	3.10604e-08
 109	1.2778e-06	9.15061e-07	-1.2778e-06
 110	4.32325e-07	-7.98626e-08	-4.32325e-07
 111	-3.10604e-08	-1.44329e-07	3.10604e-08
 112	1.2778e-06	9.15061e-07	-1.2778e-06
 113	4.32325e-07	-7.98626e-08	-4.32325e-07
 114	-3.10604e-08	-1.44329e-07	3.10604e-08
 115	1.2778e-06	9.15061e-07	-1.2778e-06
 116	-4.32325e-07	7.98626e-08	-4.32325e-07
 117	3.10604e-08	1.44329e-07	3.10604e-08
 118	-1.2778e-06	-9.15061e-07	-1.2778e-06
 119	-4.32325e-07	7.98626e-08	-4.32325e-07
 120	3.10604e-08	1.44329e-07	3.10604e-08
 121	-1.2778e-06	-9.15061e-07	-1.2778e-06
 122	4.32325e-07	7.98626e-08	4.32325e-07
 123	-3.10604e-08	1.44329e-07	-3.10604e-08
 124	1.2778e-06	-9.15061e-07	1.2778e-06
 125	4.32325e-07	7.98626e-08	4.32325e-07
 126	-3.10604e-08	1.44329e-07	-3.10604e-08
 127	1.2778e-06	-9.15061e-07	1.2778e-06
 128	4.32325e-07	7.98626e-08	4.32325e-07
 129	-3.10604e-08	1.44329e-07	-3.10604e-08
 130	1.2778e-06	-9.15061e-07	1.2778e-06
 131	-4.32325e-07	4.32325e-07	7.98626e-08
 132	3.10604e-08	-3.10604e-08	1.44329e-07
 133	-1.2778e-06	1.2778e-06	-9.15061e-07
 134	-4.32325e-07	4.32325e-07	7.98626e-08
 135	3.10604e-08	-3.10604e-08	1.44329e-07
 136	-1.2778e-06	1.2778e-06	-9.15061e-07
 137	4.32325e-07	-4.32325e-07	7.98626e-08
 138	-3.10604e-08	3.10604e-08	1.44329e-07
 139	1.2778e-06	-1.2778e-06	-9.15061e-07
 140	4.32325e-07	-4.32325e-07	7.98626e-08
 141	-3.10604e-08	3.10604e-08	1.44329e-07
 142	1.2778e-06	-1.2778e-06	-9.15061e-07
 143	4.32325e-07	-4.32325e-07	7.98626e-08
 144	-3.10604e-08	3.10604e-08	1.44329e-07
 145	1.2778e-06	-1.2778e-06	-9.15061e-07
 146	-4.32325e-07	-4.32325e-07	-7.98626e-08
 147	3.10604e-08	3.10604e-08	-1.44329e-07
 148	-1.2778e-06	-1.2778e-06	9.15061e-07
 149	-4.32325e-07	-4.32325e-07	-7.98626e-08
 150	3.10604e-08	3.10604e-08	-1.44329e-07
 151	-1.2778e-06	-1.2778e-06	9.15061e-07
 152	4.32325e-07	4.32325e-07	-7.98626e-08
 153	-3.10604e-08	-3.10604e-08	-1.44329e-07
 154	1.2778e-06	1.2778e-06	9.15061e-07
 155	4.32325e-07	4.32325e-07	-7.98626e-08
 156	-3.10604e-08	-3.10604e-08	-1.44329e-07
 157	1.2778e-06	1.2778e-06	9.15061e-07
 158	4.32325e-07	4.32325e-07	-7.98626e-08
 159	-3.10604e-08	-3.10604e-08	-1.44329e-07
 160	1.2778e-06	1.2778e-06	9.15061e-07
 161	4.32325e-07	-7.98626e-08	4.32325e-07
 162	-3.10604e-08	-1.44329e-07	-3.10604e-08
 163	1.2778e-06	9.15061e-07	1.2778e-06
 164	4.32325e-07	-7.98626e-08	4.32325e-07
 165	-3.10604e-08	-1.44329e-07	-3.10604e-08
 166	1.2778e-06	9.15061e-07	1.2778e-06
 167	-4.32325e-07	-7.98626e-08	-4.32325e-07
 168	3.10604e-08	-1.44329e-07	3.10604e-08
 169	-1.2778e-06	9.15061e-07	-1.2778e-06
 170	-4.32325e-07	-7.98626e-08	-4.32325e-07
 171	3.10604e-08	-1.44329e-07	3.10604e-08
 172	-1.2778e-06	9.15061e-07	-1.2778e-06
 173	-4.32325e-07	-7.98626e-08	-4.32325e-07
 174	3.10604e-08	-1.44329e-07	3.10604e-08
 175	-1.2778e-06	9.15061e-07	-1.2778e-06
 176	-4.32325e-07	7.98626e-08	4.32325e-07
 177	3.10604e-08	1.44329e-07	-3.10604e-08
 178	-1.2778e-06	-9.15061e-07	1.2778e-06
 179	-4.32325e-07	7.98626e-08	4.32325e-07
 180	3.10604e-08	1.44329e-07	-3.10604e-08
 181	-1.2778e-06	-9.15061e-07	1.2778e-06
 182	-4.32325e-07	7.98626e-08	4.32325e-07
 183	3.10604e-08	1.44329e-07	-3.10604e-08
 184	-1.2778e-06	-9.15061e-07	1.2778e-06
 185	4.32325e-07	7.98626e-08	-4.32325e-07
 186	-3.10604e-08	1.44329e-07	3.10604e-08
 187	1.2778e-06	-9.15061e-07	-1.2778e-06
 188	4.32325e-07	7.98626e-08	-4.32325e-07
 189	-3.10604e-08	1.44329e-07	3.10604e-08
 190	1.2778e-06	-9.15061e-07	-1.2778e-06
 191	-7.98626e-08	-4.32325e-07	-4.32325e-07
 192	-1.44329e-07	3.10604e-08	3.10604e-08
 193	9.15061e-07	-1.2778e-06	-1.2778e-06
 194	-7.98626e-08	-4.32325e-07	-4.32325e-07
 195	-1.44329e-07	3.10604e-08	3.10604e-08
 196	9.15061e-07	-1.2778e-06	-1.2778e-06
 197	-7.98626e-08	4.32325e-07	4.32325e-07
 198	-1.44329e-07	-3.10604e-08	-3.10604e-08
 199	9.15061e-07	1.2778e-06	1.2778e-06
 200	-7.98626e-08	4.32325e-07	4.32325e-07
 201	-1.44329e-07	-3.10604e-08	-3.10604e-08
 202	9.15061e-07	1.2778e-06	1.2778e-06
 203	-7.98626e-08	4.32325e-07	4.32325e-07
 204	-1.44329e-07	-3.10604e-08	-3.10604e-08
 205	9.15061e-07	1.2778e-06	1.2778e-06
 206	7.98626e-08	-4.32325e-07	4.32325e-07
 207	1.44329e-07	3.10604e-08	-3.10604e-08
 208	-9.15061e-07	-1.2778e-06	1.2778e-06
 209	7.98626e-08	-4.32325e-07	4.32325e-07
 210	1.44329e-07	3.10604e-08	-3.10604e-08
 211	-9.15061e-07	-1.2778e-06	1.2778e-06
 212	7.98626e-08	4.32325e-07	-4.32325e-07
 213	1.44329e-07	-3.10604e-08	3.10604e-08
 214	-9.15061e-07	1.2778e-06	-1.2778e-06
 215	7.98626e-08	4.32325e-07	-4.32325e-07
 216	1.44329e-07	-3.10604e-08	3.10604e-08
 217	-9.15061e-07	1.2778e-06	-1.2778e-06
 218	7.98626e-08	4.32325e-07	-4.32325e-07
 219	1.44329e-07	-3.10604e-08	3.10604e-08
 220	-9.15061e-07	1.2778e-06	-1.2778e-06
 221	-4.32325e-07	4.32325e-07	7.98626e-08
 222	3.10604e-08	-3.10604e-08	1.44329e-07
 223	-1.2778e-06	1.2778e-06	-9.15061e-07
 224	-4.32325e-07	4.32325e-07	7.98626e-08
 225	3.10604e-08	-3.10604e-08	1.44329e-07
 226	-1.2778e-06	1.2778e-06	-9.15061e-07
 227	4.32325e-07	-4.32325e-07	7.98626e-08
 228	-3.10604e-08	3.10604e-08	1.44329e-07
 229	1.2778e-06	-1.2778e-06	-9.15061e-07
 230	4.32325e-07	4.32325e-07	-7.98626e-08
 231	-3.10604e-08	-3.10604e-08	-1.44329e-07
 232	1.2778e-06	1.2778e-06	9.15061e-07
 233	-4.32325e-07	-4.32325e-07	-7.98626e-08
 234	3.10604e-08	3.10604e-08	-1.44329e-07
 235	-1.2778e-06	-1.2778e-06	9.15061e-07
 236	-4.32325e-07	-4.32325e-07	-7.98626e-08
 237	3.10604e-08	3.10604e-08	-1.44329e-07
 238	-1.2778e-06	-1.2778e-06	9.15061e-07
 239	7.98626e-08	-4.32325e-07	4.32325e-07
 240	1.44329e-07	3.10604e-08	-3.10604e-08
 241	-9.15061e-07	-1.2778e-06	1.2778e-06
 242	7.98626e-08	-4.32325e-07	4.32325e-07
 243	1.44329e-07	3.10604e-08	-3.10604e-08
 244	-9.15061e-07	-1.2778e-06	1.2778e-06
 245	7.98626e-08	4.32325e-07	-4.32325e-07
 246	1.44329e-07	-3.10604e-08	3.10604e-08
 247	-9.15061e-07	1.2778e-06	-1.2778e-06
 248	-7.98626e-08	4.32325e-07	4.32325e-07
 249	-1.44329e-07	-3.10604e-08	-3.10604e-08
 250	9.15061e-07	1.2778e-06	1.2778e-06
 251	-7.98626e-08	-4.32325e-07	-4.32325e-07
 252	-1.44329e-07	3.10604e-08	3.10604e-08
 253	9.15061e-07	-1.2778e-06	-1.2778e-06
 254	-7.98626e-08	-4.32325e-07	-4.32325e-07
 255	-1.44329e-07	3.10604e-08	3.10604e-08
 256	9.15061e-07	-1.2778e-06	-1.2778e-06
 257	4.32325e-07	7.98626e-08	-4.32325e-07
 258	-3.10604e-08	1.44329e-07	3.10604e-08
 259	1.2778e-06	-9.15061e-07	-1.2778e-06
 260	4.32325e-07	7.98626e-08	-4.32325e-07
 261	-3.10604e-08	1.44329e-07	3.10604e-08
 262	1.2778e-06	-9.15061e-07	-1.2778e-06
 263	-4.32325e-07	7.98626e-08	4.32325e-07
 264	3.10604e-08	1.44329e-07	-3.10604e-08
 265	-1.2778e-06	-9.15061e-07	1.2778e-06
 266	4.32325e-07	-7.98626e-08	4.32325e-07
 267	-3.10604e-08	-1.44329e-07	-3.10604e-08
 268	1.2778e-06	9.15061e-07	1.2778e-06
 269	4.32325e-07	-7.98626e-08	4.32325e-07
 270	-3.10604e-08	-1.44329e-07	-3.10604e-08
 271	1.2778e-06	9.15061e-07	1.2778e-06
 272	-4.32325e-07	-7.98626e-08	-4.32325e-07
 273	3.10604e-08	-1.44329e-07	3.10604e-08
 274	-1.2778e-06	9.15061e-07	-1.2778e-06
 275	4.32325e-07	-4.32325e-07	-7.98626e-08
 276	-3.10604e-08	3.10604e-08	-1.44329e-07
 277	1.2778e-06	-1.2778e-06	9.15061e-07
 278	4.32325e-07	-4.32325e-07	-7.98626e-08
 279	-3.10604e-08	3.10604e-08	-1.44329e-07
 280	1.2778e-06	-1.2778e-06	9.15061e-07
 281	-4.32325e-07	4.32325e-07	-7.98626e-08
 282	3.10604e-08	-3.10604e-08	-1.44329e-07
 283	-1.2778e-06	1.2778e-06	9.15061e-07
 284	4.32325e-07	4.32325e-07	7.98626e-08
 285	-3.10604e-08	-3.10604e-08	1.44329e-07
 286	1.2778e-06	1.2778e-06	-9.15061e-07
 287	4.32325e-07	4.32325e-07	7.98626e-08
 288	-3.10604e-08	-3.10604e-08	1.44329e-07
 289	1.2778e-06	1.2778e-06	-9.15061e-07
 290	-4.32325e-07	-4.32325e-07	7.98626e-08
 291	3.10604e-08	3.10604e-08	1.44329e-07
 292	-1.2778e-06	-1.2778e-06	-9.15061e-07
 293	-4.32325e-07	7.98626e-08	-4.32325e-07
 294	3.10604e-08	1.44329e-07	3.10604e-08
 295	-1.2778e-06	-9.15061e-07	-1.2778e-06
 296	-4.32325e-07	7.98626e-08	-4.32325e-07
 297	3.10604e-08	1.44329e-07	3.10604e-08
 298	-1.2778e-06	-9.15061e-07	-1.2778e-06
 299	4.32325e-07	7.98626e-08	4.32325e-07
 300	-3.10604e-08	1.44329e-07	-3.10604e-08
 301	1.2778e-06	-9.15061e-07	1.2778e-06
 302	4.32325e-07	-7.98626e-08	-4.32325e-07
 303	-3.10604e-08	-1.44329e-07	3.10604e-08
 304	1.2778e-06	9.15061e-07	-1.2778e-06
 305	-4.32325e-07	-7.98626e-08	4.32325e-07
 306	3.10604e-08	-1.44329e-07	-3.10604e-08
 307	-1.2778e-06	9.15061e-07	1.2778e-06
 308	-4.32325e-07	-7.98626e-08	4.32325e-07
 309	3.10604e-08	-1.44329e-07	-3.10604e-08
 310	-1.2778e-06	9.15061e-07	1.2778e-06
 311	7.98626e-08	4.32325e-07	4.32325e-07
 312	1.44329e-07	-3.10604e-08	-3.10604e-08
 313	-9.15061e-07	1.2778e-06	1.2778e-06
 314	7.98626e-08	4.32325e-07	4.32325e-07
 315	1.44329e-07	-3.10604e-08	-3.10604e-08
 316	-9.15061e-07	1.2778e-06	1.2778e-06
 317	7.98626e-08	-4.32325e-07	-4.32325e-07
 318	1.44329e-07	3.10604e-08	3.10604e-08
 319	-9.15061e-07	-1.2778e-06	-1.2778e-06
 320	-7.98626e-08	4.32325e-07	-4.32325e-07
 321	-1.44329e-07	-3.10604e-08	3.10604e-08
 322	9.15061e-07	1.2778e-06	-1.2778e-06
 323	-7.98626e-08	4.32325e-07	-4.32325e-07
 324	-1.44329e-07	-3.10604e-08	3.10604e-08
 325	9.15061e-07	1.2778e-06	-1.2778e-06
 326	-7.98626e-08	-4.32325e-07	4.32325e-07
 327	-1.44329e-07	3.10604e-08	-3.10604e-08
 328	9.15061e-07	-1.2778e-06	1.2778e-06
 329	3.36046e-18	3.41078e-18	2.81925e-07
 330	8.06231e-20	8.0507e-20	-1.85952e-07
 331	-1.47663e-16	1.96784e-16	2.81925e-07
 332	2.33687e-16	-3.7376e-16	-1.85952e-07
 333	-1.85017e-17	1.84677e-17	2.81925e-07
 334	2.96306e-16	-4.27085e-16	-1.85952e-07
 335	1.64341e-16	-1.23015e-16	2.81925e-07
 336	4.49255e-17	-4.61037e-17	-1.85952e-07
 337	-7.39973e-17	-6.48307e-17	-2.81925e-07
 338	-1.24596e-16	-7.46555e-17	1.85952e-07
 339	2.79885e-16	2.68765e-16	-2.81925e-07
 340	-2.84515e-18	-1.306e-17	1.85952e-07
 341	1.99198e-17	1.9962e-17	-2.81925e-07
 342	8.72779e-17	8.73991e-17	1.85952e-07
 343	3.93748e-18	9.54709e-17	-2.81925e-07
 344	2.57614e-16	3.83014e-18	1.85952e-07
 345	2.81925e-07	3.56263e-18	3.31855e-18
 346	-1.85952e-07	1.62519e-17	-1.61189e-17
 347	2.81925e-07	-1.05343e-16	9.1799e-17
 348	-1.85952e-07	-3.22212e-16	5.66679e-16
 349	2.81925e-07	1.56595e-18	-1.78267e-17
 350	-1.85952e-07	-7.11433e-17	5.08306e-17
 351	2.81925e-07	-8.82672e-17	8.91763e-17