pySIMM System Object

110 atoms
114 bonds
222 angles
432 dihedrals
0 impropers

4 atom types
5 bond types
8 angle types
3 dihedral types

-5.790535 5.790535 xlo xhi
-5.790535 5.790535 ylo yhi
-5.790535 5.790535 zlo zhi

Masses

   1	12.01	# c3
   2	1.008	# hc
   3	12.01	# ca
   4	1.008	# ha

Pair Coeffs

   1	0.1094	3.39966950842	# c3
   2	0.0157	2.64953278775	# hc
   3	0.086	3.39966950842	# ca
   4	0.015	2.59964245953	# ha

Bond Coeffs

   1	337.3	1.092	# c3,hc
   2	303.1	1.535	# c3,c3
   3	478.4	1.387	# ca,ca
   4	344.3	1.087	# ca,ha
   5	323.5	1.513	# c3,ca

Angle Coeffs

   1	46.37	110.05	# c3,c3,hc
   2	39.43	108.35	# hc,c3,hc
   3	63.25	112.09	# c3,c3,ca
   4	48.46	120.01	# ca,ca,ha
   5	46.96	110.15	# ca,c3,hc
   6	67.18	119.97	# ca,ca,ca
   7	63.84	120.63	# c3,ca,ca
   8	63.21	110.63	# c3,c3,c3

Dihedral Coeffs

   1	0.16	 1	3	# X,c3,c3,X
   2	0.0	 1	2	# X,c3,ca,X
   3	3.625	-1	2	# X,ca,ca,X

Atoms

   1	1	1	-0.130479423243	2.25997593192	-4.40961351514	-3.26696823147
   2	1	1	-0.130479423243	3.03180406789	-5.45490582852	-2.43553354782
   3	1	2	0.0652397116213	1.41923278843	-4.90669864489	-3.75515708082
   4	1	2	0.0652397116213	2.90856893943	-4.03999998248	-4.06317160718
   5	1	2	0.0652397116213	3.98635750295	-5.05246170231	-2.08959143937
   6	1	2	0.0652397116213	3.23974976409	5.23837229055	-3.03806330016
   7	1	3	-0.0380025879112	0.628035620756	-3.67926085716	-1.45244387229
   8	1	3	-0.0736520575411	-0.720070301098	-3.45802815504	-1.74761279426
   9	1	3	-0.0736520575411	0.961486010566	-4.34917122311	-0.269554742638
  10	1	3	-0.0827876028787	-1.71794532402	-3.89769146855	-0.880494193712
  11	1	3	-0.0827876028787	-0.0357890030726	-4.79750580403	0.594139110014
  12	1	3	-0.0835818428333	-1.37616718441	-4.57193173728	0.289419896954
  13	1	1	-0.082688409704	1.70115066357	-3.22030240106	-2.44127627856
  14	1	1	-0.120946463638	2.83102173353	-2.37218518593	-1.79328197916
  15	1	4	0.0850737110036	-1.0017684413	-2.94927394842	-2.66633427947
  16	1	4	0.0850737110036	2.00135652116	-4.54068274317	-0.021506003026
  17	1	4	0.083694161376	-2.76306696962	-3.72207435325	-1.12292443572
  18	1	4	0.083694161376	0.233621706002	-5.33003243529	1.50393260428
  19	1	4	0.0836460153597	-2.15458857049	-4.926698767	0.960158147548
  20	1	2	0.0837189897345	1.21368944652	-2.57630866575	-3.1764801036
  21	1	2	0.0665989375363	3.55916704135	-2.10184165222	-2.5592503949
  22	1	2	0.0665989375363	3.36788242537	-2.96969427254	-1.05395169278
  23	1	1	-0.130479423243	1.66917885094	-0.0839574062589	-2.09835629424
  24	1	1	-0.130479423243	2.34132876146	-1.07051897545	-1.10934588373
  25	1	2	0.0652397116213	0.676802868417	-0.465108193796	-2.35044566744
  26	1	2	0.0652397116213	2.23856744655	-0.0515375020275	-3.02869873272
  27	1	2	0.0652397116213	3.21079334138	-0.593427572273	-0.650573725499
  28	1	2	0.0652397116213	1.64937894387	-1.30673187614	-0.296712352446
  29	1	3	-0.0380025879112	2.84895444722	2.02831585812	-1.15427053079
  30	1	3	-0.0736520575411	3.97914939355	1.92330189135	-1.97463067927
  31	1	3	-0.0736520575411	2.93553293177	2.79084311755	0.0149753160101
  32	1	3	-0.0827876028787	5.16779818897	2.56368525122	-1.63051551071
  33	1	3	-0.0827876028787	4.12452573137	3.4312847707	0.359708646378
  34	1	3	-0.0835818428333	5.24270291465	3.31698379782	-0.462180199707
  35	1	1	-0.082688409704	1.52096959836	1.34609429817	-1.50538288044
  36	1	1	-0.120946463638	0.629998802079	2.2607201268	-2.39326069513
  37	1	4	0.0850737110036	3.94416461405	1.34786230037	-2.89461543502
  38	1	4	0.0850737110036	2.0692886684	2.89446851179	0.664543110344
  39	1	4	0.083694161376	-5.54450817798	2.47737937224	-2.27817286875
  40	1	4	0.083694161376	4.17984033529	4.0202991671	1.27203322694
  41	1	4	0.0836460153597	-5.41068261574	3.81642452004	-0.193354697034
  42	1	2	0.0837189897345	0.973464897314	1.22171550752	-0.567040226505
  43	1	2	0.0665989375363	-0.393137447919	1.87561978933	-2.3941904235
  44	1	2	0.0665989375363	0.589261965584	3.25403816683	-1.93681574798
  45	1	1	-0.130479423243	0.396357541764	3.53536242228	-4.60089913786
  46	1	1	-0.130479423243	1.1151385273	2.39156129125	-3.85645633309
  47	1	2	0.0652397116213	-0.670157748147	3.49348556166	-4.36460192509
  48	1	2	0.0652397116213	0.761928795596	4.48653736711	-4.20982264406
  49	1	2	0.0652397116213	2.18342852537	2.60751918152	-3.86151234736
  50	1	2	0.0652397116213	0.945157421156	1.44784338452	-4.3785775369
  51	1	3	-0.0380025879112	-0.173129213189	4.74774507384	4.87000968143
  52	1	3	-0.0736520575411	-1.4549541342	4.63665770483	4.32499570547
  53	1	3	-0.0736520575411	0.433777312779	-5.57293491366	4.92083709451
  54	1	3	-0.0827876028787	-2.11310687382	5.76089066301	3.82845866868
  55	1	3	-0.0827876028787	-0.220033616716	-4.4501160203	4.41797777938
  56	1	3	-0.0835818428333	-1.49369421767	-4.57323160344	3.86953928607
  57	1	1	-0.082688409704	0.53904837247	3.5146939786	5.43045931511
  58	1	1	-0.120946463638	2.00180252136	3.4468057517	4.89529047331
  59	1	4	0.0850737110036	-1.95127342488	3.67138499839	4.28952199138
  60	1	4	0.0850737110036	1.42391562237	-5.4578107605	5.35342853995
  61	1	4	0.083694161376	-3.110253035	5.66270111036	3.4057675152
  62	1	4	0.083694161376	0.26622081254	-3.47792774013	4.45305939087
  63	1	4	0.0836460153597	-2.00146173461	-3.69739736448	3.47163683003
  64	1	2	0.0837189897345	0.0159456952506	2.62945709487	5.06030015994
  65	1	2	0.0665989375363	2.64862684978	4.10923779593	5.47680056893
  66	1	2	0.0665989375363	2.0006595387	3.82598132304	3.86903084363
  67	1	1	-0.130479423243	3.92777726428	2.00045436618	4.03645269196
  68	1	1	-0.130479423243	2.61345597562	2.02411636168	4.85263146357
  69	1	2	0.0652397116213	3.69169012483	1.93929882071	2.97109833421
  70	1	2	0.0652397116213	4.46221305802	2.94184930259	4.19338343539
  71	1	2	0.0652397116213	2.82847316558	1.67720693204	-5.72056603198
  72	1	2	0.0652397116213	1.90069558848	1.32374125601	4.41107379316
  73	1	3	-0.0380025879112	-5.32735312754	0.993049770822	3.81667814608
  74	1	3	-0.0736520575411	-4.18172306055	0.975781118358	4.61821276734
  75	1	3	-0.0736520575411	-5.18439246268	1.10821580192	2.4303284988
  76	1	3	-0.0827876028787	-2.91578695149	1.07109330291	4.04400960657
  77	1	3	-0.0827876028787	-3.91867925054	1.21707251062	1.85692120868
  78	1	3	-0.0835818428333	-2.78288004905	1.19621854129	2.66354078243
  79	1	1	-0.082688409704	4.87371278127	0.844481553899	4.45817705919
  80	1	1	-0.120946463638	4.25939103844	-0.553806789075	4.16660097806
  81	1	4	0.0850737110036	-4.2693923426	0.865570255139	5.69669208781
  82	1	4	0.0850737110036	5.52114048794	1.10610952278	1.78653358408
  83	1	4	0.083694161376	-2.03189639598	1.04362212957	4.67700470951
  84	1	4	0.083694161376	-3.81828483634	1.30611587727	0.778354066841
  85	1	4	0.0836460153597	-1.79450373244	1.27035002916	2.2162637918
  86	1	2	0.0837189897345	5.0060895774	0.942487271678	5.53713842044
  87	1	2	0.0665989375363	4.19628722837	-0.692447695168	3.08459904118
  88	1	2	0.0665989375363	3.23927966	-0.617537785785	4.5502227733
  89	1	1	-0.130479423243	4.87663598841	-1.84662749891	-5.27489569792
  90	1	1	-0.130479423243	5.08750222253	-1.7133409609	4.77561968492
  91	1	2	0.0652397116213	3.87524353561	-2.24323316959	-5.09794527908
  92	1	2	0.0652397116213	4.90102044174	-0.863759501763	-4.80228316264
  93	1	2	0.0652397116213	4.78144589518	-2.64739849523	4.29758137957
  94	1	2	0.0652397116213	-5.43796353202	-1.57471493823	4.53971993019
  95	1	3	-0.0380025879112	-4.28443935636	-2.05935123397	-4.49274217515
  96	1	3	-0.0736520575411	-3.29936903154	-2.27684704393	-5.46223708143
  97	1	3	-0.0736520575411	-4.0162661598	-1.16958545749	-3.44738592682
  98	1	3	-0.0827876028787	-2.07289677226	-1.61918516307	-5.38583045241
  99	1	3	-0.0827876028787	-2.79113279358	-0.509550481517	-3.37212919661
 100	1	3	-0.0835818428333	-1.81840341742	-0.733355618988	-4.34244156168
 101	1	1	-0.082688409704	-5.65574934586	-2.73689601694	-4.55813547263
 102	1	1	-0.120946463638	-5.63465936536	-4.17722079285	-5.11759667524
 103	1	4	0.0850737110036	-3.48454355159	-2.94750891183	5.28582558897
 104	1	4	0.0850737110036	-4.77119928724	-0.978740938102	-2.68819431838
 105	1	4	0.083694161376	-1.3181493365	-1.78761759629	5.43172951632
 106	1	4	0.083694161376	-2.59649992621	0.183858688598	-2.55786946857
 107	1	4	0.0836460153597	-0.864853435567	-0.215175511677	-4.2885371021
 108	1	2	0.0837189897345	5.58507950537	-2.84180898656	-3.5249255714
 109	1	2	0.0665989375363	-4.92722374065	-4.79400509511	-4.55784074075
 110	1	2	0.0665989375363	-5.3591084949	-4.20703961608	5.40807842017

Velocities

   1	0.00385060731916	-0.00266731263711	-0.00205163701045
   2	0.000131931105222	-0.00127598594512	-0.000389454175073
   3	-0.0131568217859	0.0284095603196	0.0466299167694
   4	-0.0465601080388	-0.00903309238117	-0.0353586922111
   5	0.00796078182152	-0.00219292774943	0.0202844994754
   6	0.00430546697459	0.0297996105774	-0.00247089750766
   7	-0.00307454714742	-0.00154217724305	-0.00137162595565
   8	-0.000554533782968	-0.00307682646647	-0.00280878821453
   9	0.00425899414699	0.00240913827658	0.000356150540341
  10	0.00446761667064	0.00335693564825	0.00353275585726
  11	0.00255779198558	-0.00574220240966	0.000721808338608
  12	-0.00353680974076	0.0018266020047	-0.0080150021493
  13	0.002938060002	-0.00490227919393	0.00510888257992
  14	-0.00368388730369	0.00775129136321	0.000306418271677
  15	0.00327307106076	0.000768058820933	0.0228784309492
  16	-0.00941932367646	-0.00199169840226	0.00883834137684
  17	-0.00653358561039	0.0206021029721	0.0151343696863
  18	-0.00591347069343	-0.00563793666284	0.0111175590117
  19	0.0026060632545	0.0113180710397	0.00330948016019
  20	-0.00414396643448	-0.0109171439781	0.0168334521449
  21	0.000887748903658	-0.00746606330741	-0.0352213397715
  22	-0.0209410058643	-0.00763430771963	-0.0170425725384
  23	0.00385060731916	-0.00266731263711	-0.00205163701045
  24	0.000131931105222	-0.00127598594512	-0.000389454175073
  25	-0.0131568217859	0.0284095603196	0.0466299167694
  26	-0.0465601080388	-0.00903309238117	-0.0353586922111
  27	0.00796078182152	-0.00219292774943	0.0202844994754
  28	0.00430546697459	0.0297996105774	-0.00247089750766
  29	-0.00307454714742	-0.00154217724305	-0.00137162595565
  30	-0.000554533782968	-0.00307682646647	-0.00280878821453
  31	0.00425899414699	0.00240913827658	0.000356150540341
  32	0.00446761667064	0.00335693564825	0.00353275585726
  33	0.00255779198558	-0.00574220240966	0.000721808338608
  34	-0.00353680974076	0.0018266020047	-0.0080150021493
  35	0.002938060002	-0.00490227919393	0.00510888257992
  36	-0.00368388730369	0.00775129136321	0.000306418271677
  37	0.00327307106076	0.000768058820933	0.0228784309492
  38	-0.00941932367646	-0.00199169840226	0.00883834137684
  39	-0.00653358561039	0.0206021029721	0.0151343696863
  40	-0.00591347069343	-0.00563793666284	0.0111175590117
  41	0.0026060632545	0.0113180710397	0.00330948016019
  42	-0.00414396643448	-0.0109171439781	0.0168334521449
  43	0.000887748903658	-0.00746606330741	-0.0352213397715
  44	-0.0209410058643	-0.00763430771963	-0.0170425725384
  45	0.00385060731916	-0.00266731263711	-0.00205163701045
  46	0.000131931105222	-0.00127598594512	-0.000389454175073
  47	-0.0131568217859	0.0284095603196	0.0466299167694
  48	-0.0465601080388	-0.00903309238117	-0.0353586922111
  49	0.00796078182152	-0.00219292774943	0.0202844994754
  50	0.00430546697459	0.0297996105774	-0.00247089750766
  51	-0.00307454714742	-0.00154217724305	-0.00137162595565
  52	-0.000554533782968	-0.00307682646647	-0.00280878821453
  53	0.00425899414699	0.00240913827658	0.000356150540341
  54	0.00446761667064	0.00335693564825	0.00353275585726
  55	0.00255779198558	-0.00574220240966	0.000721808338608
  56	-0.00353680974076	0.0018266020047	-0.0080150021493
  57	0.002938060002	-0.00490227919393	0.00510888257992
  58	-0.00368388730369	0.00775129136321	0.000306418271677
  59	0.00327307106076	0.000768058820933	0.0228784309492
  60	-0.00941932367646	-0.00199169840226	0.00883834137684
  61	-0.00653358561039	0.0206021029721	0.0151343696863
  62	-0.00591347069343	-0.00563793666284	0.0111175590117
  63	0.0026060632545	0.0113180710397	0.00330948016019
  64	-0.00414396643448	-0.0109171439781	0.0168334521449
  65	0.000887748903658	-0.00746606330741	-0.0352213397715
  66	-0.0209410058643	-0.00763430771963	-0.0170425725384
  67	0.00385060731916	-0.00266731263711	-0.00205163701045
  68	0.000131931105222	-0.00127598594512	-0.000389454175073
  69	-0.0131568217859	0.0284095603196	0.0466299167694
  70	-0.0465601080388	-0.00903309238117	-0.0353586922111
  71	0.00796078182152	-0.00219292774943	0.0202844994754
  72	0.00430546697459	0.0297996105774	-0.00247089750766
  73	-0.00307454714742	-0.00154217724305	-0.00137162595565
  74	-0.000554533782968	-0.00307682646647	-0.00280878821453
  75	0.00425899414699	0.00240913827658	0.000356150540341
  76	0.00446761667064	0.00335693564825	0.00353275585726
  77	0.00255779198558	-0.00574220240966	0.000721808338608
  78	-0.00353680974076	0.0018266020047	-0.0080150021493
  79	0.002938060002	-0.00490227919393	0.00510888257992
  80	-0.00368388730369	0.00775129136321	0.000306418271677
  81	0.00327307106076	0.000768058820933	0.0228784309492
  82	-0.00941932367646	-0.00199169840226	0.00883834137684
  83	-0.00653358561039	0.0206021029721	0.0151343696863
  84	-0.00591347069343	-0.00563793666284	0.0111175590117
  85	0.0026060632545	0.0113180710397	0.00330948016019
  86	-0.00414396643448	-0.0109171439781	0.0168334521449
  87	0.000887748903658	-0.00746606330741	-0.0352213397715
  88	-0.0209410058643	-0.00763430771963	-0.0170425725384
  89	0.00385060731916	-0.00266731263711	-0.00205163701045
  90	0.000131931105222	-0.00127598594512	-0.000389454175073
  91	-0.0131568217859	0.0284095603196	0.0466299167694
  92	-0.0465601080388	-0.00903309238117	-0.0353586922111
  93	0.00796078182152	-0.00219292774943	0.0202844994754
  94	0.00430546697459	0.0297996105774	-0.00247089750766
  95	-0.00307454714742	-0.00154217724305	-0.00137162595565
  96	-0.000554533782968	-0.00307682646647	-0.00280878821453
  97	0.00425899414699	0.00240913827658	0.000356150540341
  98	0.00446761667064	0.00335693564825	0.00353275585726
  99	0.00255779198558	-0.00574220240966	0.000721808338608
 100	-0.00353680974076	0.0018266020047	-0.0080150021493
 101	0.002938060002	-0.00490227919393	0.00510888257992
 102	-0.00368388730369	0.00775129136321	0.000306418271677
 103	0.00327307106076	0.000768058820933	0.0228784309492
 104	-0.00941932367646	-0.00199169840226	0.00883834137684
 105	-0.00653358561039	0.0206021029721	0.0151343696863
 106	-0.00591347069343	-0.00563793666284	0.0111175590117
 107	0.0026060632545	0.0113180710397	0.00330948016019
 108	-0.00414396643448	-0.0109171439781	0.0168334521449
 109	0.000887748903658	-0.00746606330741	-0.0352213397715
 110	-0.0209410058643	-0.00763430771963	-0.0170425725384

Bonds

   1	2	1	2
   2	1	1	3
   3	1	1	4
   4	1	2	5
   5	1	2	6
   6	3	7	8
   7	3	7	9
   8	5	7	13
   9	3	8	10
  10	4	8	15
  11	3	9	11
  12	4	9	16
  13	3	10	12
  14	4	10	17
  15	3	11	12
  16	4	11	18
  17	4	12	19
  18	2	13	14
  19	1	13	20
  20	1	14	21
  21	1	14	22
  22	2	1	13
  23	2	23	24
  24	1	23	25
  25	1	23	26
  26	1	24	27
  27	1	24	28
  28	2	14	24
  29	3	29	30
  30	3	29	31
  31	5	29	35
  32	3	30	32
  33	4	30	37
  34	3	31	33
  35	4	31	38
  36	3	32	34
  37	4	32	39
  38	3	33	34
  39	4	33	40
  40	4	34	41
  41	2	35	36
  42	1	35	42
  43	1	36	43
  44	1	36	44
  45	2	23	35
  46	2	45	46
  47	1	45	47
  48	1	45	48
  49	1	46	49
  50	1	46	50
  51	2	36	46
  52	3	51	52
  53	3	51	53
  54	5	51	57
  55	3	52	54
  56	4	52	59
  57	3	53	55
  58	4	53	60
  59	3	54	56
  60	4	54	61
  61	3	55	56
  62	4	55	62
  63	4	56	63
  64	2	57	58
  65	1	57	64
  66	1	58	65
  67	1	58	66
  68	2	45	57
  69	2	67	68
  70	1	67	69
  71	1	67	70
  72	1	68	71
  73	1	68	72
  74	2	58	68
  75	3	73	74
  76	3	73	75
  77	5	73	79
  78	3	74	76
  79	4	74	81
  80	3	75	77
  81	4	75	82
  82	3	76	78
  83	4	76	83
  84	3	77	78
  85	4	77	84
  86	4	78	85
  87	2	79	80
  88	1	79	86
  89	1	80	87
  90	1	80	88
  91	2	67	79
  92	2	89	90
  93	1	89	91
  94	1	89	92
  95	1	90	93
  96	1	90	94
  97	2	80	90
  98	3	95	96
  99	3	95	97
 100	5	95	101
 101	3	96	98
 102	4	96	103
 103	3	97	99
 104	4	97	104
 105	3	98	100
 106	4	98	105
 107	3	99	100
 108	4	99	106
 109	4	100	107
 110	2	101	102
 111	1	101	108
 112	1	102	109
 113	1	102	110
 114	2	89	101

Angles

   1	1	2	1	3
   2	1	2	1	4
   3	2	3	1	4
   4	1	1	2	5
   5	1	1	2	6
   6	2	5	2	6
   7	6	8	7	9
   8	7	8	7	13
   9	7	9	7	13
  10	6	7	8	10
  11	4	7	8	15
  12	4	10	8	15
  13	6	7	9	11
  14	4	7	9	16
  15	4	11	9	16
  16	4	12	10	17
  17	6	12	10	8
  18	4	17	10	8
  19	4	12	11	18
  20	6	12	11	9
  21	4	18	11	9
  22	6	10	12	11
  23	4	10	12	19
  24	4	11	12	19
  25	3	7	13	14
  26	5	7	13	20
  27	1	14	13	20
  28	1	22	14	13
  29	2	22	14	21
  30	1	13	14	21
  31	8	2	1	13
  32	1	3	1	13
  33	1	4	1	13
  34	8	13	1	13
  35	8	1	13	1
  36	1	1	13	20
  37	8	1	13	14
  38	3	1	13	7
  39	1	24	23	25
  40	1	24	23	26
  41	2	25	23	26
  42	1	23	24	27
  43	1	23	24	28
  44	2	27	24	28
  45	8	24	14	24
  46	8	13	14	24
  47	1	22	14	24
  48	1	21	14	24
  49	1	14	24	27
  50	1	14	24	28
  51	8	14	24	14
  52	8	14	24	23
  53	6	30	29	31
  54	7	30	29	35
  55	7	31	29	35
  56	6	29	30	32
  57	4	29	30	37
  58	4	32	30	37
  59	6	29	31	33
  60	4	29	31	38
  61	4	33	31	38
  62	4	34	32	39
  63	6	34	32	30
  64	4	39	32	30
  65	4	34	33	40
  66	6	34	33	31
  67	4	40	33	31
  68	6	32	34	33
  69	4	32	34	41
  70	4	33	34	41
  71	3	29	35	36
  72	5	29	35	42
  73	1	36	35	42
  74	1	44	36	35
  75	2	44	36	43
  76	1	35	36	43
  77	8	24	23	35
  78	1	25	23	35
  79	1	26	23	35
  80	8	35	23	35
  81	1	23	35	42
  82	8	23	35	36
  83	3	23	35	29
  84	8	23	35	23
  85	1	46	45	47
  86	1	46	45	48
  87	2	47	45	48
  88	1	45	46	49
  89	1	45	46	50
  90	2	49	46	50
  91	1	43	36	46
  92	8	35	36	46
  93	1	44	36	46
  94	8	46	36	46
  95	1	36	46	49
  96	1	36	46	50
  97	8	36	46	36
  98	8	36	46	45
  99	6	52	51	53
 100	7	52	51	57
 101	7	53	51	57
 102	6	51	52	54
 103	4	51	52	59
 104	4	54	52	59
 105	6	51	53	55
 106	4	51	53	60
 107	4	55	53	60
 108	4	56	54	61
 109	6	56	54	52
 110	4	61	54	52
 111	4	56	55	62
 112	6	56	55	53
 113	4	62	55	53
 114	6	54	56	55
 115	4	54	56	63
 116	4	55	56	63
 117	3	51	57	58
 118	5	51	57	64
 119	1	58	57	64
 120	1	66	58	57
 121	2	66	58	65
 122	1	57	58	65
 123	1	48	45	57
 124	8	57	45	57
 125	8	46	45	57
 126	1	47	45	57
 127	1	45	57	64
 128	8	45	57	58
 129	3	45	57	51
 130	8	45	57	45
 131	1	68	67	69
 132	1	68	67	70
 133	2	69	67	70
 134	1	67	68	71
 135	1	67	68	72
 136	2	71	68	72
 137	8	57	58	68
 138	1	66	58	68
 139	8	68	58	68
 140	1	65	58	68
 141	1	58	68	72
 142	8	58	68	58
 143	8	58	68	67
 144	1	58	68	71
 145	6	74	73	75
 146	7	74	73	79
 147	7	75	73	79
 148	6	73	74	76
 149	4	73	74	81
 150	4	76	74	81
 151	6	73	75	77
 152	4	73	75	82
 153	4	77	75	82
 154	4	78	76	83
 155	6	78	76	74
 156	4	83	76	74
 157	4	78	77	84
 158	6	78	77	75
 159	4	84	77	75
 160	6	76	78	77
 161	4	76	78	85
 162	4	77	78	85
 163	3	73	79	80
 164	5	73	79	86
 165	1	80	79	86
 166	1	88	80	79
 167	2	88	80	87
 168	1	79	80	87
 169	8	68	67	79
 170	1	69	67	79
 171	1	70	67	79
 172	8	79	67	79
 173	8	67	79	80
 174	3	67	79	73
 175	8	67	79	67
 176	1	67	79	86
 177	1	90	89	91
 178	1	90	89	92
 179	2	91	89	92
 180	1	89	90	93
 181	1	89	90	94
 182	2	93	90	94
 183	1	88	80	90
 184	8	90	80	90
 185	1	87	80	90
 186	8	79	80	90
 187	8	80	90	80
 188	8	80	90	89
 189	1	80	90	93
 190	1	80	90	94
 191	6	96	95	97
 192	7	96	95	101
 193	7	97	95	101
 194	6	95	96	98
 195	4	95	96	103
 196	4	98	96	103
 197	6	95	97	99
 198	4	95	97	104
 199	4	99	97	104
 200	4	100	98	105
 201	6	100	98	96
 202	4	105	98	96
 203	4	100	99	106
 204	6	100	99	97
 205	4	106	99	97
 206	6	98	100	99
 207	4	98	100	107
 208	4	99	100	107
 209	3	95	101	102
 210	5	95	101	108
 211	1	102	101	108
 212	1	110	102	101
 213	2	110	102	109
 214	1	101	102	109
 215	8	90	89	101
 216	1	91	89	101
 217	1	92	89	101
 218	8	101	89	101
 219	8	89	101	89
 220	1	89	101	108
 221	8	89	101	102
 222	3	89	101	95

Dihedrals

   1	1	3	1	2	5
   2	1	3	1	2	6
   3	1	4	1	2	5
   4	1	4	1	2	6
   5	3	9	7	8	10
   6	3	9	7	8	15
   7	3	13	7	8	10
   8	3	13	7	8	15
   9	3	8	7	9	11
  10	3	8	7	9	16
  11	3	13	7	9	11
  12	3	13	7	9	16
  13	2	8	7	13	14
  14	2	8	7	13	20
  15	2	9	7	13	14
  16	2	9	7	13	20
  17	3	7	8	10	12
  18	3	7	8	10	17
  19	3	15	8	10	12
  20	3	15	8	10	17
  21	3	7	9	11	12
  22	3	7	9	11	18
  23	3	16	9	11	12
  24	3	16	9	11	18
  25	3	17	10	12	11
  26	3	17	10	12	19
  27	3	8	10	12	11
  28	3	8	10	12	19
  29	3	18	11	12	10
  30	3	18	11	12	19
  31	3	9	11	12	10
  32	3	9	11	12	19
  33	1	7	13	14	22
  34	1	7	13	14	21
  35	1	20	13	14	22
  36	1	20	13	14	21
  37	1	5	2	1	13
  38	1	6	2	1	13
  39	1	20	13	1	13
  40	1	14	13	1	13
  41	1	7	13	1	13
  42	1	1	13	1	2
  43	1	1	13	1	3
  44	1	1	13	1	4
  45	1	1	13	14	22
  46	1	1	13	14	21
  47	2	1	13	7	8
  48	2	1	13	7	9
  49	1	2	1	13	1
  50	1	2	1	13	20
  51	1	2	1	13	14
  52	1	2	1	13	7
  53	1	3	1	13	1
  54	1	3	1	13	20
  55	1	3	1	13	14
  56	1	3	1	13	7
  57	1	4	1	13	1
  58	1	4	1	13	20
  59	1	4	1	13	14
  60	1	4	1	13	7
  61	1	13	1	13	1
  62	1	13	1	13	20
  63	1	13	1	13	14
  64	1	13	1	13	7
  65	1	25	23	24	27
  66	1	25	23	24	28
  67	1	26	23	24	27
  68	1	26	23	24	28
  69	1	27	24	14	24
  70	1	28	24	14	24
  71	1	23	24	14	24
  72	1	1	13	14	24
  73	1	20	13	14	24
  74	1	7	13	14	24
  75	1	14	24	14	13
  76	1	14	24	14	22
  77	1	14	24	14	21
  78	1	14	24	23	25
  79	1	14	24	23	26
  80	1	24	14	24	27
  81	1	24	14	24	28
  82	1	24	14	24	14
  83	1	24	14	24	23
  84	1	13	14	24	27
  85	1	13	14	24	28
  86	1	13	14	24	14
  87	1	13	14	24	23
  88	1	22	14	24	27
  89	1	22	14	24	28
  90	1	22	14	24	14
  91	1	22	14	24	23
  92	1	21	14	24	27
  93	1	21	14	24	28
  94	1	21	14	24	14
  95	1	21	14	24	23
  96	3	31	29	30	32
  97	3	31	29	30	37
  98	3	35	29	30	32
  99	3	35	29	30	37
 100	3	30	29	31	33
 101	3	30	29	31	38
 102	3	35	29	31	33
 103	3	35	29	31	38
 104	2	30	29	35	36
 105	2	30	29	35	42
 106	2	31	29	35	36
 107	2	31	29	35	42
 108	3	29	30	32	34
 109	3	29	30	32	39
 110	3	37	30	32	34
 111	3	37	30	32	39
 112	3	29	31	33	34
 113	3	29	31	33	40
 114	3	38	31	33	34
 115	3	38	31	33	40
 116	3	39	32	34	33
 117	3	39	32	34	41
 118	3	30	32	34	33
 119	3	30	32	34	41
 120	3	40	33	34	32
 121	3	40	33	34	41
 122	3	31	33	34	32
 123	3	31	33	34	41
 124	1	29	35	36	44
 125	1	29	35	36	43
 126	1	42	35	36	44
 127	1	42	35	36	43
 128	1	27	24	23	35
 129	1	28	24	23	35
 130	1	14	24	23	35
 131	1	42	35	23	35
 132	1	36	35	23	35
 133	1	29	35	23	35
 134	1	23	35	36	43
 135	1	23	35	36	44
 136	2	23	35	29	30
 137	2	23	35	29	31
 138	1	23	35	23	24
 139	1	23	35	23	25
 140	1	23	35	23	26
 141	1	24	23	35	42
 142	1	24	23	35	36
 143	1	24	23	35	29
 144	1	24	23	35	23
 145	1	25	23	35	42
 146	1	25	23	35	36
 147	1	25	23	35	29
 148	1	25	23	35	23
 149	1	26	23	35	42
 150	1	26	23	35	36
 151	1	26	23	35	29
 152	1	26	23	35	23
 153	1	35	23	35	42
 154	1	35	23	35	36
 155	1	35	23	35	29
 156	1	35	23	35	23
 157	1	47	45	46	49
 158	1	47	45	46	50
 159	1	48	45	46	49
 160	1	48	45	46	50
 161	1	42	35	36	46
 162	1	29	35	36	46
 163	1	23	35	36	46
 164	1	49	46	36	46
 165	1	50	46	36	46
 166	1	45	46	36	46
 167	1	36	46	36	43
 168	1	36	46	36	35
 169	1	36	46	36	44
 170	1	36	46	45	48
 171	1	36	46	45	47
 172	1	43	36	46	49
 173	1	43	36	46	50
 174	1	43	36	46	36
 175	1	43	36	46	45
 176	1	35	36	46	49
 177	1	35	36	46	50
 178	1	35	36	46	36
 179	1	35	36	46	45
 180	1	44	36	46	49
 181	1	44	36	46	50
 182	1	44	36	46	36
 183	1	44	36	46	45
 184	1	46	36	46	49
 185	1	46	36	46	50
 186	1	46	36	46	36
 187	1	46	36	46	45
 188	3	53	51	52	54
 189	3	53	51	52	59
 190	3	57	51	52	54
 191	3	57	51	52	59
 192	3	52	51	53	55
 193	3	52	51	53	60
 194	3	57	51	53	55
 195	3	57	51	53	60
 196	2	52	51	57	58
 197	2	52	51	57	64
 198	2	53	51	57	58
 199	2	53	51	57	64
 200	3	51	52	54	56
 201	3	51	52	54	61
 202	3	59	52	54	56
 203	3	59	52	54	61
 204	3	51	53	55	56
 205	3	51	53	55	62
 206	3	60	53	55	56
 207	3	60	53	55	62
 208	3	61	54	56	55
 209	3	61	54	56	63
 210	3	52	54	56	55
 211	3	52	54	56	63
 212	3	62	55	56	54
 213	3	62	55	56	63
 214	3	53	55	56	54
 215	3	53	55	56	63
 216	1	51	57	58	66
 217	1	51	57	58	65
 218	1	64	57	58	66
 219	1	64	57	58	65
 220	1	64	57	45	57
 221	1	58	57	45	57
 222	1	51	57	45	57
 223	1	49	46	45	57
 224	1	50	46	45	57
 225	1	36	46	45	57
 226	1	45	57	58	66
 227	1	45	57	58	65
 228	2	45	57	51	52
 229	2	45	57	51	53
 230	1	45	57	45	48
 231	1	45	57	45	46
 232	1	45	57	45	47
 233	1	48	45	57	64
 234	1	48	45	57	58
 235	1	48	45	57	51
 236	1	48	45	57	45
 237	1	57	45	57	64
 238	1	57	45	57	58
 239	1	57	45	57	51
 240	1	57	45	57	45
 241	1	46	45	57	64
 242	1	46	45	57	58
 243	1	46	45	57	51
 244	1	46	45	57	45
 245	1	47	45	57	64
 246	1	47	45	57	58
 247	1	47	45	57	51
 248	1	47	45	57	45
 249	1	69	67	68	71
 250	1	69	67	68	72
 251	1	70	67	68	71
 252	1	70	67	68	72
 253	1	64	57	58	68
 254	1	51	57	58	68
 255	1	45	57	58	68
 256	1	72	68	58	68
 257	1	67	68	58	68
 258	1	71	68	58	68
 259	1	58	68	58	57
 260	1	58	68	58	66
 261	1	58	68	58	65
 262	1	58	68	67	69
 263	1	58	68	67	70
 264	1	57	58	68	72
 265	1	57	58	68	58
 266	1	57	58	68	67
 267	1	57	58	68	71
 268	1	66	58	68	72
 269	1	66	58	68	58
 270	1	66	58	68	67
 271	1	66	58	68	71
 272	1	68	58	68	72
 273	1	68	58	68	58
 274	1	68	58	68	67
 275	1	68	58	68	71
 276	1	65	58	68	72
 277	1	65	58	68	58
 278	1	65	58	68	67
 279	1	65	58	68	71
 280	3	75	73	74	76
 281	3	75	73	74	81
 282	3	79	73	74	76
 283	3	79	73	74	81
 284	3	74	73	75	77
 285	3	74	73	75	82
 286	3	79	73	75	77
 287	3	79	73	75	82
 288	2	74	73	79	80
 289	2	74	73	79	86
 290	2	75	73	79	80
 291	2	75	73	79	86
 292	3	73	74	76	78
 293	3	73	74	76	83
 294	3	81	74	76	78
 295	3	81	74	76	83
 296	3	73	75	77	78
 297	3	73	75	77	84
 298	3	82	75	77	78
 299	3	82	75	77	84
 300	3	83	76	78	77
 301	3	83	76	78	85
 302	3	74	76	78	77
 303	3	74	76	78	85
 304	3	84	77	78	76
 305	3	84	77	78	85
 306	3	75	77	78	76
 307	3	75	77	78	85
 308	1	73	79	80	88
 309	1	73	79	80	87
 310	1	86	79	80	88
 311	1	86	79	80	87
 312	1	72	68	67	79
 313	1	58	68	67	79
 314	1	71	68	67	79
 315	1	80	79	67	79
 316	1	73	79	67	79
 317	1	86	79	67	79
 318	1	67	79	80	88
 319	1	67	79	80	87
 320	2	67	79	73	74
 321	2	67	79	73	75
 322	1	67	79	67	68
 323	1	67	79	67	69
 324	1	67	79	67	70
 325	1	68	67	79	80
 326	1	68	67	79	73
 327	1	68	67	79	67
 328	1	68	67	79	86
 329	1	69	67	79	80
 330	1	69	67	79	73
 331	1	69	67	79	67
 332	1	69	67	79	86
 333	1	70	67	79	80
 334	1	70	67	79	73
 335	1	70	67	79	67
 336	1	70	67	79	86
 337	1	79	67	79	80
 338	1	79	67	79	73
 339	1	79	67	79	67
 340	1	79	67	79	86
 341	1	91	89	90	93
 342	1	91	89	90	94
 343	1	92	89	90	93
 344	1	92	89	90	94
 345	1	89	90	80	90
 346	1	93	90	80	90
 347	1	94	90	80	90
 348	1	73	79	80	90
 349	1	67	79	80	90
 350	1	86	79	80	90
 351	1	80	90	80	88
 352	1	80	90	80	87
 353	1	80	90	80	79
 354	1	80	90	89	91
 355	1	80	90	89	92
 356	1	88	80	90	80
 357	1	88	80	90	89
 358	1	88	80	90	93
 359	1	88	80	90	94
 360	1	90	80	90	80
 361	1	90	80	90	89
 362	1	90	80	90	93
 363	1	90	80	90	94
 364	1	87	80	90	80
 365	1	87	80	90	89
 366	1	87	80	90	93
 367	1	87	80	90	94
 368	1	79	80	90	80
 369	1	79	80	90	89
 370	1	79	80	90	93
 371	1	79	80	90	94
 372	3	97	95	96	98
 373	3	97	95	96	103
 374	3	101	95	96	98
 375	3	101	95	96	103
 376	3	96	95	97	99
 377	3	96	95	97	104
 378	3	101	95	97	99
 379	3	101	95	97	104
 380	2	96	95	101	102
 381	2	96	95	101	108
 382	2	97	95	101	102
 383	2	97	95	101	108
 384	3	95	96	98	100
 385	3	95	96	98	105
 386	3	103	96	98	100
 387	3	103	96	98	105
 388	3	95	97	99	100
 389	3	95	97	99	106
 390	3	104	97	99	100
 391	3	104	97	99	106
 392	3	105	98	100	99
 393	3	105	98	100	107
 394	3	96	98	100	99
 395	3	96	98	100	107
 396	3	106	99	100	98
 397	3	106	99	100	107
 398	3	97	99	100	98
 399	3	97	99	100	107
 400	1	95	101	102	110
 401	1	95	101	102	109
 402	1	108	101	102	110
 403	1	108	101	102	109
 404	1	80	90	89	101
 405	1	93	90	89	101
 406	1	94	90	89	101
 407	1	108	101	89	101
 408	1	102	101	89	101
 409	1	95	101	89	101
 410	1	89	101	89	90
 411	1	89	101	89	91
 412	1	89	101	89	92
 413	1	89	101	102	110
 414	1	89	101	102	109
 415	2	89	101	95	96
 416	2	89	101	95	97
 417	1	90	89	101	89
 418	1	90	89	101	108
 419	1	90	89	101	102
 420	1	90	89	101	95
 421	1	91	89	101	89
 422	1	91	89	101	108
 423	1	91	89	101	102
 424	1	91	89	101	95
 425	1	92	89	101	89
 426	1	92	89	101	108
 427	1	92	89	101	102
 428	1	92	89	101	95
 429	1	101	89	101	89
 430	1	101	89	101	108
 431	1	101	89	101	102
 432	1	101	89	101	95

