ITEM: TIMESTEP
0
ITEM: NUMBER OF ATOMS
66
ITEM: BOX BOUNDS pp pp pp
-5.79054 5.79054
-5.79054 5.79054
-5.79054 5.79054
ITEM: ATOMS id type xs ys zs
1 1 0.455157 0.415903 0.140426
2 1 0.334484 0.360654 0.130582
3 2 0.45854 0.466131 0.220208
4 2 0.468392 0.476168 0.0690181
5 2 0.267772 0.427364 0.131909
6 2 0.325876 0.312221 0.0499933
7 3 0.556087 0.251808 0.0316071
8 3 0.540921 0.132267 0.0373572
13 1 0.55189 0.32366 0.142271
14 1 0.669815 0.380538 0.169759
15 4 0.524664 0.090631 0.119964
20 2 0.532707 0.265578 0.214219
21 2 0.663081 0.422916 0.253596
22 2 0.689603 0.447821 0.106583
23 1 0.877877 0.331485 0.236555
24 1 0.768665 0.290402 0.171131
25 2 0.904558 0.415729 0.203406
26 2 0.947961 0.271457 0.217106
27 2 0.792518 0.270914 0.0819241
28 2 0.738061 0.209231 0.208194
29 3 0.815751 0.224572 0.419524
30 3 0.705451 0.220965 0.468378
31 3 0.881413 0.12333 0.415207
33 3 0.837962 0.0205374 0.460252
35 1 0.861887 0.337749 0.369616
36 1 0.976256 0.375789 0.427741
37 4 0.652611 0.298499 0.471546
38 4 0.966836 0.124076 0.376322
40 4 0.889657 0.942284 0.456805
42 2 0.799149 0.405774 0.387751
43 2 0.0438862 0.312161 0.410652
44 2 0.00477614 0.45733 0.389579
9 3 0.577785 0.303425 0.924645
10 3 0.54728 0.065161 0.937676
11 3 0.584496 0.23631 0.824845
12 3 0.569364 0.117149 0.831492
16 4 0.590785 0.396172 0.918771
17 4 0.535641 0.972111 0.943095
18 4 0.602069 0.27692 0.742036
19 4 0.574981 0.0645363 0.753996
32 3 0.661765 0.118088 0.512738
34 3 0.728137 0.017863 0.509189
39 4 0.575574 0.116123 0.549867
41 4 0.69419 0.937643 0.544127
45 1 0.0760889 0.434991 0.613663
46 1 0.962581 0.392381 0.559443
47 2 0.0665939 0.442829 0.707235
48 2 0.146098 0.374216 0.596356
49 2 0.89423 0.455009 0.577042
50 2 0.937626 0.311055 0.600303
51 3 0.363361 0.633753 0.747885
52 3 0.457879 0.634955 0.822562
53 3 0.325905 0.736867 0.697757
54 3 0.514152 0.738374 0.847597
55 3 0.381816 0.840393 0.723176
56 3 0.47594 0.841188 0.798145
57 1 0.303105 0.520211 0.722104
58 1 0.170617 0.526579 0.730207
59 4 0.487886 0.554948 0.861493
60 4 0.252606 0.736956 0.639069
61 4 0.587773 0.738809 0.905872
62 4 0.351914 0.92056 0.684529
63 4 0.519561 0.921937 0.81796
64 2 0.329859 0.486703 0.63807
65 2 0.133861 0.439736 0.730204
66 2 0.14437 0.569824 0.809817
ITEM: TIMESTEP
100
ITEM: NUMBER OF ATOMS
66
ITEM: BOX BOUNDS pp pp pp
-5.79054 5.79054
-5.79054 5.79054
-5.79054 5.79054
ITEM: ATOMS id type xs ys zs
1 1 0.456651 0.42802 0.15615
2 1 0.342283 0.365703 0.142528
3 2 0.449041 0.471482 0.234075
4 2 0.469751 0.489881 0.0972755
5 2 0.276813 0.431372 0.116546
6 2 0.341365 0.303711 0.0686417
7 3 0.57205 0.270343 0.0460701
8 3 0.553977 0.147787 0.0508734
13 1 0.55727 0.33688 0.153439
14 1 0.659124 0.407529 0.198184
15 4 0.537904 0.109145 0.135898
20 2 0.539942 0.271006 0.21916
21 2 0.635642 0.459183 0.2781
22 2 0.689005 0.470484 0.129264
23 1 0.865134 0.376789 0.259059
24 1 0.751803 0.317987 0.227728
25 2 0.866934 0.452844 0.2019
26 2 0.9375 0.320569 0.227476
27 2 0.774141 0.266744 0.146947
28 2 0.719783 0.255411 0.293793
29 3 0.874004 0.297797 0.461145
41 4 0.704407 0.00749921 0.466595
31 3 0.931598 0.194155 0.45242
33 3 0.874178 0.0882418 0.449632
35 1 0.891807 0.405416 0.391092
36 1 0.0166076 0.416776 0.414896
34 3 0.757319 0.0846482 0.464314
38 4 0.0178138 0.192492 0.417823
40 4 0.922657 0.010355 0.432195
42 2 0.840956 0.478454 0.424203
43 2 0.0845778 0.351206 0.428732
44 2 0.0565727 0.463843 0.343527
49 2 0.00125984 0.610252 0.468877
9 3 0.585616 0.321808 0.939112
10 3 0.567334 0.0791939 0.950763
11 3 0.588425 0.25334 0.83776
12 3 0.584421 0.13153 0.847795
16 4 0.588545 0.415683 0.93997
17 4 0.549945 0.988574 0.956507
18 4 0.594863 0.301915 0.758623
19 4 0.591422 0.081737 0.768098
32 3 0.717491 0.182791 0.512902
65 2 0.943521 0.564667 0.813625
39 4 0.628069 0.182387 0.540921
64 2 0.184756 0.4603 0.762591
45 1 0.109233 0.469737 0.596784
63 4 0.506617 0.81169 0.669518
47 2 0.0825537 0.379741 0.620254
48 2 0.192801 0.446426 0.538043
66 2 0.992779 0.671985 0.704619
50 2 0.932298 0.521442 0.563549
51 3 0.243496 0.617976 0.681675
52 3 0.359638 0.568527 0.719223
53 3 0.229889 0.731253 0.631528
54 3 0.460694 0.642357 0.696244
55 3 0.326399 0.810362 0.610775
56 3 0.439459 0.756101 0.651557
57 1 0.143307 0.528039 0.706707
58 1 0.0181926 0.591028 0.754121
59 4 0.359951 0.479647 0.749782
60 4 0.130503 0.74248 0.602583
61 4 0.542505 0.624362 0.740213
62 4 0.307011 0.895567 0.590524
37 4 0.72491 0.364464 0.539411
30 3 0.77247 0.287923 0.514545
46 1 0.00631888 0.525022 0.501811
ITEM: TIMESTEP
200
ITEM: NUMBER OF ATOMS
66
ITEM: BOX BOUNDS pp pp pp
-5.79054 5.79054
-5.79054 5.79054
-5.79054 5.79054
ITEM: ATOMS id type xs ys zs
1 1 0.458109 0.444297 0.189679
2 1 0.34982 0.38407 0.141355
3 2 0.444103 0.462187 0.279161
4 2 0.474301 0.516858 0.143073
5 2 0.265895 0.418858 0.17003
6 2 0.359395 0.369415 0.0480649
7 3 0.555929 0.286314 0.0655222
8 3 0.545573 0.167323 0.0625469
13 1 0.556828 0.35517 0.182231
14 1 0.665668 0.421897 0.211093
15 4 0.531108 0.134195 0.146618
20 2 0.553373 0.28939 0.25148
21 2 0.670614 0.438222 0.304282
22 2 0.656933 0.510756 0.173339
23 1 0.884768 0.428505 0.209667
24 1 0.779165 0.361475 0.172926
25 2 0.868647 0.508456 0.167198
26 2 0.963496 0.404683 0.17279
27 2 0.788232 0.367714 0.0736705
28 2 0.778684 0.270549 0.191328
29 3 0.876799 0.336144 0.416429
44 2 0.071548 0.49303 0.281948
31 3 0.919529 0.222716 0.409123
33 3 0.910414 0.136789 0.496574
35 1 0.908387 0.441693 0.345649
36 1 0.0375169 0.460327 0.364361
43 2 0.0893577 0.386332 0.401707
38 4 0.981357 0.201973 0.341748
40 4 0.971356 0.0660661 0.497866
42 2 0.850907 0.511067 0.381183
63 4 0.419134 0.692673 0.420489
49 2 0.129071 0.591742 0.458649
62 4 0.267926 0.837834 0.503261
46 1 0.0406331 0.562393 0.459078
50 2 1.01469 0.646636 0.434623
30 3 0.793924 0.3406 0.497849
9 3 0.581653 0.347771 0.963169
10 3 0.585982 0.103438 0.965273
11 3 0.609578 0.283453 0.861229
12 3 0.608965 0.161237 0.862603
16 4 0.586176 0.441419 0.968068
17 4 0.598126 0.00742461 0.969732
18 4 0.633143 0.340499 0.796202
19 4 0.630612 0.107515 0.788446
32 3 0.769738 0.248296 0.57603
65 2 1.00524 0.535952 0.886109
39 4 0.705338 0.260528 0.644973
64 2 0.101788 0.498077 0.764254
45 1 0.0160812 0.52061 0.600443
34 3 0.833799 0.151331 0.584338
47 2 0.925642 0.515383 0.620667
48 2 0.0369492 0.422312 0.585817
66 2 0.945902 0.672159 0.802426
37 4 0.751521 0.422608 0.510842
51 3 0.196355 0.613101 0.665515
52 3 0.290678 0.541424 0.636959
53 3 0.202175 0.724746 0.626224
54 3 0.3597 0.58397 0.54321
55 3 0.27755 0.756338 0.532876
56 3 0.358224 0.686575 0.48565
57 1 0.0838932 0.571006 0.707304
58 1 0.0147649 0.609854 0.815821
59 4 0.29574 0.455892 0.666132
60 4 0.13141 0.783007 0.654352
61 4 0.432653 0.521845 0.507683
41 4 0.824309 0.0957457 0.65856
ITEM: TIMESTEP
300
ITEM: NUMBER OF ATOMS
66
ITEM: BOX BOUNDS pp pp pp
-5.79054 5.79054
-5.79054 5.79054
-5.79054 5.79054
ITEM: ATOMS id type xs ys zs
1 1 0.43935 0.412369 0.239702
2 1 0.338453 0.381245 0.162049
3 2 0.424436 0.366687 0.328199
4 2 0.434228 0.503958 0.261182
5 2 0.252999 0.396621 0.195793
6 2 0.334799 0.441009 0.0918453
7 3 0.552476 0.316072 0.0683443
8 3 0.565039 0.195714 0.0723341
13 1 0.559816 0.374964 0.192749
14 1 0.667087 0.461117 0.192
15 4 0.568069 0.154142 0.154163
20 2 0.584277 0.318106 0.261416
21 2 0.676684 0.49876 0.274092
22 2 0.659539 0.534335 0.130551
23 1 0.894233 0.430303 0.19689
24 1 0.773426 0.380313 0.16218
25 2 0.91653 0.502452 0.146611
26 2 0.949805 0.364729 0.188213
27 2 0.773276 0.371939 0.0664083
28 2 0.754478 0.304816 0.201203
29 3 0.868789 0.345787 0.404826
44 2 0.0733511 0.53292 0.300088
31 3 0.937659 0.246754 0.404833
30 3 0.786425 0.352271 0.495732
35 1 0.906905 0.446405 0.327953
36 1 0.0238231 0.507902 0.363571
43 2 0.0755936 0.453963 0.421654
38 4 0.00814879 0.243992 0.342486
50 2 0.909746 0.650519 0.39465
42 2 0.829983 0.505128 0.332485
63 4 0.439257 0.706745 0.418461
49 2 0.0461827 0.692523 0.418734
56 3 0.364867 0.685075 0.466206
46 1 0.98368 0.613013 0.437427
62 4 0.317313 0.85776 0.499677
9 3 0.524783 0.374565 0.963456
10 3 0.582712 0.13437 0.9691
11 3 0.552862 0.316883 0.859104
12 3 0.591416 0.193692 0.8653
16 4 0.510325 0.465316 0.968472
17 4 0.599671 0.0357135 0.965933
18 4 0.553543 0.362055 0.781393
19 4 0.619849 0.155514 0.784122
32 3 0.789372 0.276226 0.587441
65 2 0.971189 0.551475 0.78637
39 4 0.733124 0.287125 0.667156
64 2 0.0656126 0.477401 0.650317
45 1 0.962287 0.592447 0.575844
34 3 0.883242 0.20342 0.595834
47 2 0.931881 0.675395 0.587901
48 2 0.892517 0.538276 0.592077
66 2 0.036715 0.6963 0.753595
40 4 0.0446134 0.146905 0.517787
51 3 0.186071 0.623622 0.607243
52 3 0.254076 0.534679 0.552486
53 3 0.216282 0.743373 0.594085
33 3 0.96338 0.192555 0.507629
55 3 0.292972 0.771475 0.510148
41 4 0.89895 0.159066 0.676272
57 1 0.0677624 0.571074 0.642411
58 1 0.0432805 0.607599 0.756018
59 4 0.226659 0.444592 0.572729
60 4 0.178903 0.813576 0.64821
61 4 0.435674 0.506325 0.511147
54 3 0.367595 0.580978 0.523521
37 4 0.742611 0.431902 0.512912
ITEM: TIMESTEP
400
ITEM: NUMBER OF ATOMS
66
ITEM: BOX BOUNDS pp pp pp
-5.79054 5.79054
-5.79054 5.79054
-5.79054 5.79054
ITEM: ATOMS id type xs ys zs
1 1 0.434576 0.434546 0.202181
2 1 0.308096 0.393185 0.215642
3 2 0.462996 0.474631 0.288976
4 2 0.427032 0.501305 0.133306
5 2 0.294348 0.314253 0.26922
6 2 0.24652 0.465124 0.227311
7 3 0.534091 0.310147 0.036487
8 3 0.571991 0.195806 0.0196415
13 1 0.542222 0.358299 0.164776
14 1 0.652766 0.419168 0.212247
15 4 0.609516 0.151734 0.0884733
20 2 0.538808 0.282162 0.219168
21 2 0.635396 0.432626 0.300933
22 2 0.668645 0.507264 0.177572
23 1 0.866264 0.441745 0.237819
24 1 0.762375 0.349061 0.232525
25 2 0.84503 0.502954 0.169119
26 2 0.949027 0.405055 0.232141
27 2 0.794116 0.306366 0.148869
28 2 0.765669 0.283531 0.295579
29 3 0.897352 0.406764 0.439159
44 2 0.94271 0.624003 0.262021
31 3 0.986541 0.32655 0.421638
33 3 0.985221 0.216295 0.472845
35 1 0.862427 0.504316 0.353464
36 1 0.949682 0.600789 0.341911
43 2 0.0340317 0.552436 0.349302
38 4 0.0564978 0.35567 0.369127
50 2 0.875765 0.751987 0.403168
42 2 0.778415 0.541533 0.373298
46 1 0.944027 0.706557 0.408598
49 2 -0.00434313 0.765841 0.369809
40 4 0.0593214 0.158379 0.467301
62 4 0.368313 0.889863 0.53987
9 3 0.471914 0.365161 0.950905
10 3 0.565407 0.145121 0.906337
11 3 0.460629 0.309843 0.84101
12 3 0.508014 0.202794 0.814788
16 4 0.424749 0.444527 0.95866
17 4 0.607217 0.0582916 0.869293
18 4 0.412827 0.354148 0.779275
19 4 0.503151 0.169222 0.727711
32 3 0.806146 0.272268 0.573047
65 2 0.997109 0.550562 0.720821
39 4 0.748984 0.250639 0.651465
64 2 0.0577313 0.539783 0.508971
45 1 0.964604 0.672449 0.540657
34 3 0.894632 0.195332 0.547148
47 2 0.968995 0.759326 0.592923
48 2 0.887519 0.631541 0.580918
66 2 0.120178 0.638796 0.745231
54 3 0.39781 0.597885 0.576192
51 3 0.197441 0.646544 0.526062
52 3 0.287272 0.559797 0.541188
53 3 0.229541 0.770177 0.530411
37 4 0.745075 0.445249 0.547493
55 3 0.348781 0.802707 0.517502
41 4 0.90627 0.11672 0.59292
57 1 0.0810952 0.602284 0.560508
58 1 0.0820194 0.578875 0.68953
59 4 0.264275 0.470337 0.57131
60 4 0.163432 0.831885 0.557412
63 4 0.514538 0.728954 0.580948
61 4 0.446691 0.547317 0.637178
56 3 0.427927 0.709973 0.542972
30 3 0.809556 0.381947 0.521725
ITEM: TIMESTEP
500
ITEM: NUMBER OF ATOMS
66
ITEM: BOX BOUNDS pp pp pp
-5.79054 5.79054
-5.79054 5.79054
-5.79054 5.79054
ITEM: ATOMS id type xs ys zs
1 1 0.385088 0.409473 0.203891
2 1 0.296582 0.315564 0.191206
3 2 0.39314 0.43291 0.29518
4 2 0.358767 0.49001 0.164553
5 2 0.306411 0.240926 0.257325
6 2 0.205939 0.338439 0.177365
7 3 0.469693 0.304092 0.040657
8 3 0.533017 0.204235 0.00721916
13 1 0.490911 0.359756 0.159513
14 1 0.586626 0.450348 0.155111
15 4 0.57163 0.154 0.068262
20 2 0.524228 0.290456 0.212956
21 2 0.575933 0.516173 0.219208
22 2 0.587413 0.494794 0.0653347
23 1 0.81402 0.487089 0.200264
24 1 0.707737 0.395552 0.195914
25 2 0.796942 0.557943 0.13267
26 2 0.885823 0.45516 0.143937
27 2 0.721972 0.319826 0.13111
28 2 0.683074 0.34952 0.281255
29 3 0.890402 0.42833 0.406513
44 2 0.962104 0.658661 0.216096
31 3 0.00128729 0.377931 0.416858
33 3 0.025946 0.29167 0.495317
35 1 0.866633 0.532498 0.320493
36 1 0.966822 0.628423 0.295764
43 2 0.0442124 0.574983 0.300066
38 4 0.0716253 0.408889 0.372958
50 2 0.883158 0.750518 0.398259
42 2 0.814772 0.592292 0.368734
46 1 0.964344 0.726008 0.392277
49 2 0.0131176 0.790713 0.366303
62 4 0.393538 0.915258 0.534239
30 3 0.812264 0.378393 0.482485
64 2 0.126505 0.565393 0.490998
9 3 0.408378 0.36557 0.955345
10 3 0.539074 0.174328 0.887034
11 3 0.402501 0.32343 0.844177
12 3 0.479476 0.232681 0.804028
16 4 0.360365 0.44209 0.981854
17 4 0.588751 0.094309 0.848761
18 4 0.358307 0.368603 0.779323
19 4 0.484211 0.206893 0.718206
32 3 0.837815 0.302645 0.573645
65 2 0.0137261 0.49998 0.625108
39 4 0.767203 0.289441 0.641527
60 4 0.192898 0.858067 0.527552
45 1 0.990603 0.694295 0.514216
34 3 0.953954 0.268494 0.587707
47 2 -0.0279528 0.77755 0.570637
48 2 0.915866 0.643556 0.53566
66 2 0.0947426 0.58613 0.726843
54 3 0.438467 0.63017 0.561028
51 3 0.237015 0.677437 0.573784
52 3 0.327167 0.597793 0.595974
53 3 0.25288 0.786026 0.534998
37 4 0.726524 0.412281 0.469607
55 3 0.370346 0.825362 0.521144
41 4 0.985273 0.223773 0.661514
57 1 0.114273 0.624288 0.546769
58 1 0.0940112 0.547894 0.641788
59 4 0.312753 0.506696 0.62446
56 3 0.462494 0.74631 0.535803
63 4 0.554273 0.788268 0.554758
61 4 0.513647 0.576421 0.587015
40 4 0.114306 0.263595 0.499305
ITEM: TIMESTEP
600
ITEM: NUMBER OF ATOMS
66
ITEM: BOX BOUNDS pp pp pp
-5.79054 5.79054
-5.79054 5.79054
-5.79054 5.79054
ITEM: ATOMS id type xs ys zs
1 1 0.354917 0.386711 0.200469
2 1 0.288549 0.273164 0.190525
3 2 0.355233 0.407141 0.29045
4 2 0.321895 0.455154 0.154624
5 2 0.20291 0.290895 0.23987
6 2 0.259646 0.269084 0.101017
7 3 0.474417 0.331204 0.0375668
37 4 0.736569 0.488861 0.497656
13 1 0.481413 0.362462 0.163514
14 1 0.565769 0.461385 0.19883
15 4 0.590852 0.193904 0.0481072
20 2 0.508558 0.282468 0.209572
21 2 0.553366 0.498878 0.285153
22 2 0.55508 0.537833 0.131662
23 1 0.787692 0.525404 0.168147
24 1 0.695692 0.425908 0.187757
25 2 0.763594 0.615959 0.135215
26 2 0.867753 0.488511 0.125747
27 2 0.712026 0.364298 0.118443
28 2 0.718391 0.373857 0.267473
29 3 0.870595 0.452745 0.371194
44 2 0.932363 0.696566 0.199923
31 3 0.969702 0.396232 0.364602
30 3 0.80891 0.432379 0.475396
35 1 0.848556 0.553609 0.280138
36 1 0.964417 0.633532 0.258888
43 2 0.0177381 0.58024 0.203387
38 4 0.0275582 0.416307 0.305607
50 2 0.955863 0.777434 0.35945
42 2 0.79138 0.616346 0.327926
46 1 0.0186345 0.703493 0.354752
49 2 0.103542 0.736702 0.328184
33 3 0.0123941 0.324424 0.453741
40 4 0.0982727 0.289396 0.440688
60 4 0.170239 0.823863 0.483055
45 1 0.0337753 0.661635 0.494569
9 3 0.407954 0.402611 0.96688
10 3 0.504068 0.195635 0.881129
11 3 0.372897 0.359511 0.859515
12 3 0.423475 0.256182 0.813712
16 4 0.363557 0.483599 0.992502
17 4 0.545105 0.111316 0.850955
18 4 0.302643 0.413281 0.822585
19 4 0.414134 0.22023 0.731202
32 3 0.84963 0.358933 0.568587
65 2 0.0427364 0.534864 0.695422
39 4 0.798163 0.351258 0.651328
8 3 0.533053 0.23527 0.993067
63 4 0.517937 0.881314 0.575179
34 3 0.958444 0.30429 0.557702
47 2 0.0302169 0.732731 0.54968
48 2 0.95665 0.606143 0.518654
66 2 0.102934 0.679735 0.708461
54 3 0.453816 0.69756 0.565837
51 3 0.257319 0.667416 0.534437
52 3 0.36136 0.626595 0.571226
53 3 0.249837 0.787444 0.499051
61 4 0.540694 0.679721 0.610988
55 3 0.344018 0.860538 0.524075
41 4 1.00636 0.255137 0.619142
57 1 0.138704 0.596499 0.551003
58 1 0.119633 0.589686 0.676818
59 4 0.364895 0.543323 0.616804
56 3 0.450881 0.818873 0.548373
64 2 0.158665 0.508311 0.514098
62 4 0.348187 0.94779 0.514553
ITEM: TIMESTEP
700
ITEM: NUMBER OF ATOMS
66
ITEM: BOX BOUNDS pp pp pp
-5.79054 5.79054
-5.79054 5.79054
-5.79054 5.79054
ITEM: ATOMS id type xs ys zs
1 1 0.378398 0.389879 0.265474
2 1 0.275324 0.305358 0.271297
3 2 0.403358 0.418022 0.351234
4 2 0.347412 0.466278 0.227312
5 2 0.273424 0.249117 0.193937
6 2 0.277005 0.246374 0.341082
7 3 0.461408 0.342403 0.0458056
45 1 0.0493697 0.703145 0.462768
13 1 0.485107 0.354757 0.181263
14 1 0.585392 0.448945 0.207794
15 4 0.511075 0.160428 0.0348687
20 2 0.520834 0.269316 0.210329
21 2 0.60421 0.456911 0.295198
22 2 0.565619 0.538701 0.178426
23 1 0.794716 0.537512 0.168146
24 1 0.709586 0.429415 0.141477
25 2 0.76055 0.629075 0.139179
26 2 0.871865 0.515453 0.112855
27 2 0.69711 0.423438 0.0483343
28 2 0.745178 0.339676 0.153623
29 3 0.864559 0.464115 0.351878
44 2 0.895573 0.757227 0.272476
31 3 0.926139 0.361715 0.314168
30 3 0.827499 0.459987 0.463567
35 1 0.831369 0.571856 0.28228
36 1 0.934625 0.668729 0.270337
43 2 0.962027 0.646628 0.18059
38 4 0.960514 0.354918 0.235058
50 2 0.11228 0.696057 0.277148
42 2 0.764281 0.620977 0.323489
46 1 0.0500528 0.647772 0.33474
49 2 0.0989691 0.557683 0.32389
33 3 0.936314 0.266698 0.392762
40 4 0.987784 0.188686 0.377786
16 4 0.399631 0.516762 0.028441
47 2 0.0304851 0.800589 0.475855
37 4 0.796905 0.540332 0.50183
64 2 0.163197 0.553964 0.493806
53 3 0.258285 0.84649 0.504215
60 4 0.185579 0.904017 0.488583
9 3 0.413745 0.432566 0.981803
10 3 0.468132 0.228313 0.863717
11 3 0.39754 0.424146 0.865965
12 3 0.432693 0.325021 0.804803
58 1 0.12104 0.627542 0.643834
17 4 0.502238 0.151856 0.818641
18 4 0.36859 0.504598 0.825856
19 4 0.438133 0.317248 0.712165
32 3 0.812586 0.364123 0.528514
65 2 0.0675343 0.551357 0.656565
39 4 0.763401 0.363043 0.610749
56 3 0.457166 0.874465 0.533732
63 4 0.521449 0.944196 0.541865
34 3 0.885637 0.271157 0.506358
8 3 0.483806 0.234713 0.986362
59 4 0.381695 0.580738 0.537593
66 2 0.114681 0.703236 0.704821
54 3 0.467249 0.75506 0.514013
51 3 0.266202 0.724027 0.524789
52 3 0.374925 0.677663 0.535011
57 1 0.152531 0.648475 0.51982
61 4 0.563635 0.736878 0.495225
55 3 0.354683 0.914862 0.527663
41 4 0.879635 0.194827 0.560532
48 2 0.962763 0.673016 0.499116
62 4 0.35446 -0.000485244 0.520176
ITEM: TIMESTEP
800
ITEM: NUMBER OF ATOMS
66
ITEM: BOX BOUNDS pp pp pp
-5.79054 5.79054
-5.79054 5.79054
-5.79054 5.79054
ITEM: ATOMS id type xs ys zs
1 1 0.407421 0.396787 0.288058
2 1 0.309605 0.306159 0.303099
3 2 0.445953 0.405461 0.375569
4 2 0.362645 0.478678 0.270977
5 2 0.327354 0.255356 0.378363
6 2 0.223719 0.329904 0.288425
7 3 0.455854 0.390609 0.0700491
45 1 0.0817285 0.736914 0.423061
13 1 0.505854 0.388131 0.190659
14 1 0.586154 0.479881 0.215025
15 4 0.470869 0.2054 0.0589362
20 2 0.554054 0.30301 0.196443
21 2 0.620542 0.477438 0.299585
22 2 0.549898 0.563756 0.196435
23 1 0.798427 0.528383 0.131182
24 1 0.691106 0.454238 0.128238
25 2 0.792704 0.601665 0.0718447
26 2 0.865021 0.468476 0.0829107
27 2 0.653212 0.463473 0.0436021
28 2 0.71632 0.367931 0.143047
29 3 0.839248 0.439854 0.324963
44 2 0.895953 0.716625 0.273481
31 3 0.867061 0.33683 0.273613
30 3 0.793302 0.439796 0.435287
35 1 0.832745 0.553897 0.255897
36 1 0.945162 0.638397 0.256865
43 2 0.981645 0.657907 0.169931
38 4 0.902985 0.325756 0.193012
50 2 0.0955547 0.546717 0.324221
42 2 0.771416 0.611771 0.288916
46 1 0.036737 0.623594 0.356502
49 2 0.982978 0.581754 0.426274
33 3 0.869148 0.239724 0.341465
40 4 0.910302 0.164623 0.30333
16 4 0.459683 0.582754 0.0366378
47 2 0.119545 0.803099 0.365768
34 3 0.844164 0.237595 0.460776
56 3 0.462066 0.930012 0.485564
48 2 0.00314585 0.773551 0.471722
61 4 0.562491 0.807681 0.420079
64 2 0.191858 0.592224 0.487392
8 3 0.45055 0.283796 0.0120341
37 4 0.768734 0.526561 0.480763
54 3 0.476781 0.818814 0.463806
52 3 0.388428 0.728398 0.472209
9 3 0.444958 0.491988 0.00154373
59 4 0.41205 0.644386 0.427811
63 4 0.519237 0.00335929 0.452224
57 1 0.165046 0.687029 0.499502
51 3 0.274145 0.766697 0.497652
62 4 0.357478 0.0503167 0.55276
10 3 0.427781 0.277458 0.890438
11 3 0.433119 0.481748 0.882526
12 3 0.417885 0.377689 0.832991
58 1 0.117038 0.677578 0.617669
17 4 0.441377 0.199222 0.844847
18 4 0.433437 0.553819 0.826215
19 4 0.396555 0.368426 0.741386
32 3 0.789648 0.33804 0.500539
65 2 0.0441178 0.624408 0.628158
39 4 0.765397 0.336753 0.590637
60 4 0.175951 0.920565 0.531842
41 4 0.854288 0.160092 0.514054
53 3 0.26291 0.88898 0.524674
55 3 0.359118 0.967822 0.536528
66 2 0.0998023 0.763161 0.656979
ITEM: TIMESTEP
900
ITEM: NUMBER OF ATOMS
66
ITEM: BOX BOUNDS pp pp pp
-5.79054 5.79054
-5.79054 5.79054
-5.79054 5.79054
ITEM: ATOMS id type xs ys zs
1 1 0.380757 0.447649 0.294552
2 1 0.331579 0.330265 0.311855
3 2 0.422719 0.472563 0.373917
4 2 0.316607 0.514433 0.271101
5 2 0.293152 0.32151 0.393563
6 2 0.283551 0.318079 0.236037
7 3 0.435015 0.429599 0.0632882
45 1 0.153908 0.690962 0.367674
13 1 0.477822 0.440072 0.193525
14 1 0.579063 0.526499 0.20324
15 4 0.44262 0.242576 0.0426972
20 2 0.530057 0.359799 0.205578
21 2 0.606161 0.52339 0.292551
22 2 0.555135 0.614679 0.187057
23 1 0.811783 0.547325 0.149534
24 1 0.691905 0.488993 0.120419
25 2 0.812589 0.630468 0.115689
26 2 0.878068 0.491473 0.107905
27 2 0.661113 0.490462 0.0319402
28 2 0.699467 0.394742 0.133504
29 3 0.823326 0.418776 0.325462
44 2 1.01867 0.600123 0.193308
31 3 0.880831 0.332933 0.267599
30 3 0.749688 0.393311 0.42042
35 1 0.851819 0.539344 0.279641
36 1 0.990095 0.575108 0.278809
43 2 0.0437093 0.500287 0.300681
38 4 0.943533 0.354632 0.207939
50 2 0.0331627 0.599689 0.457575
42 2 0.800048 0.597202 0.32617
46 1 1.02837 0.650872 0.378402
49 2 0.97368 0.719048 0.408784
33 3 0.891056 0.228077 0.323988
40 4 0.952394 0.16654 0.2897
16 4 0.416523 0.616118 0.0261748
47 2 0.204352 0.625629 0.333354
34 3 0.838668 0.206418 0.428979
56 3 0.465776 0.993653 0.467692
48 2 0.140854 0.763288 0.309416
61 4 0.545001 0.904029 0.329673
64 2 0.24746 0.637284 0.520936
8 3 0.421508 0.325989 -0.000825165
37 4 0.70521 0.468731 0.471182
54 3 0.473856 0.893497 0.395999
52 3 0.399233 0.798552 0.404451
9 3 0.408818 0.524004 -0.00482636
59 4 0.400119 0.721448 0.344823
51 3 0.30169 0.81276 0.477113
57 1 0.205001 0.716026 0.485592
32 3 0.764926 0.283427 0.475841
41 4 0.86219 0.137417 0.488214
63 4 0.520675 0.0640718 0.434714
62 4 0.334967 0.0890413 0.546355
10 3 0.379166 0.317829 0.88355
11 3 0.351477 0.515144 0.887209
12 3 0.349334 0.417999 0.824611
58 1 0.11652 0.743045 0.585137
17 4 0.35352 0.239516 0.839666
18 4 0.31526 0.588537 0.845975
19 4 0.318909 0.428236 0.731632
66 2 0.166022 0.781774 0.657177
65 2 0.077064 0.661715 0.608526
39 4 0.735387 0.265661 0.558572
60 4 0.205136 0.946168 0.570943
55 3 0.365781 1.00784 0.528133
53 3 0.28631 0.920157 0.53583
ITEM: TIMESTEP
1000
ITEM: NUMBER OF ATOMS
66
ITEM: BOX BOUNDS pp pp pp
-5.79054 5.79054
-5.79054 5.79054
-5.79054 5.79054
ITEM: ATOMS id type xs ys zs
1 1 0.375042 0.491271 0.254284
2 1 0.317846 0.401907 0.323944
3 2 0.401139 0.562195 0.305934
4 2 0.298165 0.530695 0.205602
5 2 0.228105 0.429561 0.349152
6 2 0.306275 0.314155 0.278653
7 3 0.410703 0.455473 0.0452018
45 1 0.134669 0.730678 0.397533
13 1 0.472434 0.455608 0.171608
14 1 0.585866 0.539798 0.199265
57 1 0.230905 0.764965 0.493272
20 2 0.502821 0.362451 0.183703
21 2 0.601196 0.530365 0.293949
22 2 0.565909 0.63567 0.199303
23 1 0.82423 0.534086 0.161914
24 1 0.704522 0.493659 0.138332
25 2 0.84479 0.616549 0.114008
26 2 0.896137 0.485008 0.12547
27 2 0.693416 0.525155 0.0484975
28 2 0.714745 0.397601 0.137835
29 3 0.877383 0.399783 0.326762
44 2 0.973906 0.686973 0.246881
31 3 0.932727 0.305999 0.26314
30 3 0.797149 0.375842 0.411561
35 1 0.876187 0.53385 0.28936
36 1 0.994998 0.603306 0.288016
43 2 0.065914 0.568599 0.234402
38 4 0.992358 0.319623 0.1974
50 2 0.0992881 0.546419 0.442891
42 2 0.809278 0.579387 0.336112
46 1 0.0453884 0.628999 0.407755
49 2 0.986975 0.662021 0.479737
33 3 0.890835 0.195388 0.290067
40 4 0.921088 0.123797 0.239866
16 4 0.357198 0.641494 0.0481629
47 2 0.183238 0.728444 0.316302
34 3 0.808226 0.174983 0.380738
56 3 0.470429 0.0202261 0.409067
48 2 0.0853656 0.802209 0.372206
61 4 0.513 0.913495 0.268476
63 4 0.530383 0.0784927 0.386329
41 4 0.782078 0.0926792 0.419733
37 4 0.758431 0.460954 0.451396
54 3 0.458151 0.922655 0.344892
52 3 0.363003 0.843673 0.358684
32 3 0.760377 0.264624 0.439492
59 4 0.346298 0.758917 0.307601
51 3 0.293154 0.869091 0.454002
55 3 0.385891 0.0529043 0.48734
62 4 0.372735 0.13552 0.516929
10 3 0.340667 0.366617 0.876368
11 3 0.29031 0.551591 0.907197
12 3 0.267192 0.451054 0.846151
58 1 0.141587 0.787287 0.591555
17 4 0.329216 0.281736 0.835712
18 4 0.235554 0.619227 0.878999
19 4 0.202949 0.451774 0.773028
66 2 0.109202 0.708595 0.622834
65 2 0.0826828 0.860545 0.580665
39 4 0.708402 0.251249 0.510924
60 4 0.253878 0.991381 0.594197
8 3 0.396996 0.362581 0.974535
53 3 0.301533 0.973024 0.517196
64 2 0.301601 0.704309 0.516086
15 4 0.434112 0.276287 0.984922
9 3 0.361938 0.558668 0.998314
ITEM: TIMESTEP
1100
ITEM: NUMBER OF ATOMS
66
ITEM: BOX BOUNDS pp pp pp
-5.79054 5.79054
-5.79054 5.79054
-5.79054 5.79054
ITEM: ATOMS id type xs ys zs
1 1 0.42643 0.510279 0.299337
2 1 0.320117 0.426395 0.313526
3 2 0.483293 0.485061 0.367277
4 2 0.37927 0.595112 0.317819
5 2 0.313583 0.392494 0.405743
6 2 0.235157 0.4734 0.274869
7 3 0.410004 0.484532 0.0666421
45 1 0.0865857 0.768674 0.38919
13 1 0.48986 0.495096 0.177696
14 1 0.592295 0.593957 0.160912
57 1 0.188154 0.789972 0.476447
20 2 0.525571 0.405015 0.166492
21 2 0.606501 0.63977 0.24248
22 2 0.579078 0.641406 0.0785949
23 1 0.817798 0.54985 0.142101
24 1 0.700571 0.508057 0.134267
25 2 0.820626 0.637118 0.100155
26 2 0.876247 0.497678 0.0835783
27 2 0.694606 0.466426 0.0494487
28 2 0.69407 0.421268 0.177809
29 3 0.883629 0.40807 0.297158
44 2 0.910756 0.700392 0.258827
31 3 0.934212 0.3182 0.238849
30 3 0.812227 0.374749 0.390065
35 1 0.866578 0.540174 0.265884
36 1 0.964866 0.626503 0.273945
43 2 0.028789 0.634742 0.201391
38 4 0.96599 0.332781 0.157748
50 2 0.121521 0.591743 0.355424
42 2 0.804972 0.574398 0.321544
46 1 0.0461755 0.648919 0.384694
49 2 1.00767 0.638868 0.476144
33 3 0.911574 0.200352 0.274421
40 4 0.947532 0.135405 0.221774
16 4 0.362923 0.671023 0.092762
47 2 0.125581 0.782601 0.301684
34 3 0.856443 0.173725 0.37719
56 3 0.425106 0.0319082 0.342003
48 2 0.0151466 0.828589 0.396478
61 4 0.469588 0.8982 0.218043
63 4 0.480363 0.0844805 0.304022
41 4 0.847683 0.0823202 0.400332
37 4 0.744522 0.438081 0.426
54 3 0.419483 0.924898 0.288492
52 3 0.332776 0.850136 0.32241
32 3 0.783161 0.256875 0.417056
59 4 0.32814 0.762768 0.278733
51 3 0.264064 0.881679 0.423258
55 3 0.367132 0.0607389 0.444216
15 4 0.410237 0.2984 0.0104434
9 3 0.365989 0.589956 0.0364794
64 2 0.238559 0.715784 0.478216
53 3 0.28927 0.982331 0.488644
8 3 0.387819 0.388405 -0.00669292
62 4 0.374925 0.136425 0.490766
10 3 0.324738 0.399117 0.898866
11 3 0.301975 0.600643 0.936316
12 3 0.288305 0.509132 0.868274
58 1 0.141908 0.803253 0.612559
17 4 0.306431 0.321984 0.841203
18 4 0.276959 0.682802 0.904561
19 4 0.233397 0.521115 0.795145
66 2 0.205582 0.789197 0.680309
65 2 0.105385 0.896677 0.614893
60 4 0.240094 -0.00628867 0.566567
39 4 0.725347 0.227956 0.480334
ITEM: TIMESTEP
1200
ITEM: NUMBER OF ATOMS
66
ITEM: BOX BOUNDS pp pp pp
-5.79054 5.79054
-5.79054 5.79054
-5.79054 5.79054
ITEM: ATOMS id type xs ys zs
1 1 0.406529 0.527603 0.3048
2 1 0.295592 0.476978 0.327894
3 2 0.452171 0.495442 0.379251
4 2 0.405809 0.621845 0.316381
5 2 0.24848 0.486944 0.400777
6 2 0.234914 0.504197 0.260443
7 3 0.420805 0.500211 0.0811838
45 1 0.0700858 0.781285 0.356901
13 1 0.472449 0.462392 0.20278
14 1 0.599839 0.511193 0.224841
57 1 0.182497 0.780385 0.441857
20 2 0.474207 0.362486 0.201126
21 2 0.628691 0.467941 0.308524
22 2 0.601134 0.60733 0.24701
23 1 0.804642 0.562797 0.111494
24 1 0.680118 0.49965 0.114598
25 2 0.786258 0.650329 0.0938033
26 2 0.863761 0.523574 0.0503519
8 3 0.393472 0.432846 -0.0142869
28 2 0.692104 0.40412 0.0984653
29 3 0.870525 0.446686 0.269882
44 2 0.953592 0.721555 0.187171
31 3 0.947521 0.376221 0.205046
30 3 0.834241 0.407526 0.379191
35 1 0.861283 0.561479 0.228159
36 1 0.974263 0.636857 0.23748
43 2 0.0531506 0.598894 0.190267
38 4 0.972936 0.396159 0.12013
50 2 0.0112592 0.627363 0.441611
42 2 0.800816 0.60738 0.281016
46 1 0.991335 0.680544 0.364358
49 2 0.904447 0.714196 0.397548
33 3 0.980806 0.27319 0.256008
40 4 0.0385525 0.214935 0.2175
16 4 0.424857 0.679861 0.12593
47 2 0.101736 0.786164 0.268288
34 3 0.935184 0.232449 0.359206
56 3 0.37427 0.0434362 0.304706
48 2 0.0226757 0.854 0.379545
61 4 0.403208 0.907968 0.1675
63 4 0.423338 0.103299 0.262673
41 4 0.971036 0.151009 0.388681
37 4 0.78038 0.461422 0.435618
54 3 0.367668 0.93444 0.247507
52 3 0.320215 0.84232 0.305056
32 3 0.867263 0.301403 0.424681
59 4 0.314071 0.761322 0.26652
51 3 0.270376 0.862707 0.413804
55 3 0.304746 0.069931 0.3981
15 4 0.427145 0.347445 -0.0172295
9 3 0.385322 0.615456 0.066618
64 2 0.218349 0.699776 0.442261
53 3 0.254708 0.975895 0.457939
62 4 0.311315 0.149692 0.442251
60 4 0.195034 1.00486 0.523553
10 3 0.313905 0.462277 0.906507
11 3 0.319948 0.655871 0.976438
12 3 0.274221 0.573944 0.903796
58 1 0.139543 0.795949 0.568612
17 4 0.293241 0.397699 0.834449
18 4 0.295184 0.742341 0.96111
19 4 0.227649 0.609513 0.830508
66 2 0.207567 0.774263 0.621311
65 2 0.0935573 0.882125 0.594861
27 2 0.640901 0.539168 1.04224
39 4 0.836296 0.254054 0.502766
ITEM: TIMESTEP
1300
ITEM: NUMBER OF ATOMS
66
ITEM: BOX BOUNDS pp pp pp
-5.79054 5.79054
-5.79054 5.79054
-5.79054 5.79054
ITEM: ATOMS id type xs ys zs
1 1 0.375618 0.445469 0.320168
2 1 0.252681 0.427425 0.298802
3 2 0.40893 0.364453 0.366199
4 2 0.383507 0.522986 0.375072
5 2 0.219665 0.404549 0.375143
6 2 0.222347 0.502967 0.258324
7 3 0.390393 0.525557 0.104527
45 1 0.0423673 0.807771 0.333704
13 1 0.444552 0.46367 0.206619
14 1 0.570215 0.509724 0.220814
57 1 0.161702 0.802202 0.400572
20 2 0.465318 0.374036 0.184113
21 2 0.607677 0.445873 0.285356
22 2 0.580538 0.597894 0.259366
23 1 0.769532 0.521251 0.116229
24 1 0.639761 0.483579 0.112637
25 2 0.771988 0.587358 0.0482133
26 2 0.803988 0.451825 0.0746706
62 4 0.309011 0.161905 0.445252
28 2 0.640335 0.390776 0.0960085