ITEM: TIMESTEP
0
ITEM: NUMBER OF ATOMS
22
ITEM: BOX BOUNDS pp pp pp
-5.79054 5.79054
-5.79054 5.79054
-5.79054 5.79054
ITEM: ATOMS id type xs ys zs
1 1 0.797067 0.622121 0.313451
2 1 0.796096 0.610973 0.181344
3 2 0.830437 0.706701 0.33851
4 2 0.852428 0.555936 0.351723
5 2 0.741614 0.678236 0.14377
6 2 0.76133 0.527133 0.155633
8 3 0.797941 0.795714 0.421712
10 3 0.747762 0.888923 0.364416
11 3 0.586237 0.88263 0.495836
12 3 0.642024 0.932615 0.401658
15 4 0.880559 0.762012 0.39246
17 4 0.791251 0.927637 0.290754
19 4 0.603041 0.00557456 0.357238
7 3 0.742641 0.745624 0.516288
9 3 0.636204 0.789081 0.552772
13 1 0.799009 0.644419 0.577666
14 1 0.799983 0.655593 0.710081
16 4 0.59206 0.750478 0.626107
18 4 0.503723 0.91664 0.524982
20 2 0.759076 0.563115 0.551298
21 2 0.857815 0.591295 0.747681
22 2 0.83012 0.741176 0.73585
ITEM: TIMESTEP
100
ITEM: NUMBER OF ATOMS
22
ITEM: BOX BOUNDS pp pp pp
-5.79054 5.79054
-5.79054 5.79054
-5.79054 5.79054
ITEM: ATOMS id type xs ys zs
1 1 0.702606 0.628955 0.399563
2 1 0.578809 0.584528 0.372353
3 2 0.700994 0.693984 0.326683
4 2 0.781143 0.587239 0.370219
5 2 0.535143 0.56038 0.450397
6 2 0.580993 0.499426 0.326772
18 4 0.472091 0.969512 0.425607
16 4 0.512777 0.781609 0.407012
11 3 0.562744 0.952474 0.445098
12 3 0.627146 0.038833 0.496763
19 4 0.591713 0.124167 0.473801
9 3 0.581941 0.834819 0.430482
7 3 0.679916 0.798627 0.484999
17 4 0.806561 0.0611971 0.511827
8 3 0.737674 0.881957 0.536031
15 4 0.818596 0.867062 0.570658
13 1 0.722366 0.684933 0.519103
14 1 0.724046 0.639523 0.636259
21 2 0.813683 0.654223 0.677561
22 2 0.633294 0.656375 0.679651
10 3 0.735357 0.00599688 0.523647
20 2 0.811647 0.685292 0.504761
ITEM: TIMESTEP
200
ITEM: NUMBER OF ATOMS
22
ITEM: BOX BOUNDS pp pp pp
-5.79054 5.79054
-5.79054 5.79054
-5.79054 5.79054
ITEM: ATOMS id type xs ys zs
1 1 0.621663 0.694427 0.392726
2 1 0.559654 0.588877 0.390145
3 2 0.603541 0.745957 0.306816
4 2 0.705808 0.67491 0.375012
5 2 0.522776 0.556221 0.317441
6 2 0.498644 0.584539 0.466598
18 4 0.464134 0.0604751 0.421775
16 4 0.496873 0.865889 0.361184
11 3 0.527073 0.0105763 0.470827
9 3 0.559613 0.902683 0.430284
8 3 0.685321 0.927771 0.591429
15 4 0.747881 0.887516 0.640163
17 4 0.763746 0.0934647 0.624122
14 1 0.578268 0.713927 0.639669
21 2 0.636752 0.754007 0.700457
22 2 0.488771 0.738353 0.657909
10 3 0.697333 0.0408392 0.58591
19 4 0.605249 0.180462 0.539215
12 3 0.60479 0.0851195 0.535192
13 1 0.637012 0.743345 0.529872
20 2 0.724486 0.713911 0.550905
7 3 0.636315 0.856841 0.499374
ITEM: TIMESTEP
300
ITEM: NUMBER OF ATOMS
22
ITEM: BOX BOUNDS pp pp pp
-5.79054 5.79054
-5.79054 5.79054
-5.79054 5.79054
ITEM: ATOMS id type xs ys zs
1 1 0.565504 0.749856 0.430176
2 1 0.630958 0.640325 0.408913
3 2 0.474377 0.747442 0.393191
4 2 0.604202 0.817927 0.387233
5 2 0.715864 0.657759 0.401424
6 2 0.605192 0.610044 0.321407
18 4 0.429784 0.158219 0.489825
16 4 0.377254 0.973304 0.446031
9 3 0.460125 0.983014 0.492609
8 3 0.652336 0.939814 0.585381
15 4 0.724725 0.88383 0.593332
17 4 0.793147 0.0748565 0.594581
14 1 0.411796 0.781799 0.600606
21 2 0.398581 0.806836 0.689212
22 2 0.352522 0.755883 0.537161
10 3 0.697062 0.0565164 0.583014
19 4 0.627098 0.216957 0.541297
12 3 0.599599 0.124622 0.557915
13 1 0.527036 0.790249 0.550786
20 2 0.591582 0.752958 0.610035
7 3 0.539691 0.910447 0.544373
11 3 0.48442 0.0848914 0.529694
ITEM: TIMESTEP
400
ITEM: NUMBER OF ATOMS
22
ITEM: BOX BOUNDS pp pp pp
-5.79054 5.79054
-5.79054 5.79054
-5.79054 5.79054
ITEM: ATOMS id type xs ys zs
1 1 0.535387 0.749148 0.504099
2 1 0.582654 0.80418 0.397634
16 4 0.324213 0.0623732 0.518604
4 2 0.527368 0.664633 0.483819
5 2 0.640323 0.762284 0.336938
6 2 0.647761 0.877268 0.410383
8 3 0.594023 0.962448 0.604158
15 4 0.655314 0.90122 0.625969
17 4 0.748116 0.0563374 0.660685
14 1 0.303149 0.85405 0.539313
21 2 0.257108 0.788793 0.486549
18 4 0.447199 0.218339 0.472226
10 3 0.658529 0.0600917 0.617322
19 4 0.640114 0.236636 0.599892
12 3 0.588438 0.156752 0.586704
13 1 0.425953 0.819572 0.560307
20 2 0.41933 0.782075 0.64827
7 3 0.470986 0.944536 0.571527
11 3 0.479012 0.14015 0.529666
9 3 0.407748 0.0466277 0.546272
3 2 0.595067 0.750363 0.575363
22 2 0.245981 0.876946 0.606966
ITEM: TIMESTEP
500
ITEM: NUMBER OF ATOMS
22
ITEM: BOX BOUNDS pp pp pp
-5.79054 5.79054
-5.79054 5.79054
-5.79054 5.79054
ITEM: ATOMS id type xs ys zs
6 2 0.451601 0.731986 0.322344
2 1 0.469923 0.825157 0.35263
5 2 0.397663 0.887844 0.356696
22 2 0.227704 0.902789 0.488782
16 4 0.363329 0.0983576 0.444027
18 4 0.50663 0.265553 0.487965
1 1 0.477785 0.816289 0.486099
8 3 0.523433 0.00600943 0.665908
15 4 0.548992 0.927282 0.695521
17 4 0.616408 0.103072 0.803408
14 1 0.246027 0.877143 0.574113
9 3 0.413694 0.0942298 0.511704
3 2 0.570704 0.833182 0.51514
10 3 0.567848 0.106052 0.71728
19 4 0.593477 0.278387 0.666858
12 3 0.55439 0.198679 0.647743
13 1 0.388982 0.885565 0.570937
20 2 0.412756 0.85159 0.656093
7 3 0.426283 0.00203173 0.584068
11 3 0.489495 0.181453 0.542343
4 2 0.463133 0.728415 0.50996
21 2 0.199082 0.955894 0.621005
ITEM: TIMESTEP
600
ITEM: NUMBER OF ATOMS
22
ITEM: BOX BOUNDS pp pp pp
-5.79054 5.79054
-5.79054 5.79054
-5.79054 5.79054
ITEM: ATOMS id type xs ys zs
6 2 0.268929 0.853578 0.326662
2 1 0.359102 0.857377 0.358488
5 2 0.409317 0.92672 0.307014
1 1 0.390834 0.86866 0.48306
16 4 0.446824 0.094328 0.427268
3 2 0.47546 0.907809 0.463228
8 3 0.445647 0.0479023 0.717045
15 4 0.435205 0.990635 0.791155
17 4 0.454316 0.167825 0.863772
14 1 0.226293 0.982896 0.577179
9 3 0.467092 0.102428 0.511549
21 2 0.158038 0.945991 0.526079
10 3 0.460248 0.155234 0.768672
19 4 0.482147 0.330738 0.712879
12 3 0.48081 0.23793 0.680497
13 1 0.346613 0.93005 0.577913
20 2 0.364161 0.88354 0.654145
7 3 0.415666 0.035445 0.599545
11 3 0.489857 0.204697 0.567053
22 2 0.18816 0.984356 0.667219
4 2 0.437268 0.784387 0.507603
18 4 0.495315 0.27666 0.500756
ITEM: TIMESTEP
700
ITEM: NUMBER OF ATOMS
22
ITEM: BOX BOUNDS pp pp pp
-5.79054 5.79054
-5.79054 5.79054
-5.79054 5.79054
ITEM: ATOMS id type xs ys zs
6 2 0.305398 0.867204 0.30817
2 1 0.323126 0.943414 0.363492
5 2 0.287913 0.0370131 0.339871
1 1 0.358547 0.927795 0.485558
16 4 0.459226 0.142082 0.451709
3 2 0.443941 0.953229 0.508582
8 3 0.343165 0.119702 0.732153
15 4 0.270681 0.0991521 0.780567
17 4 0.385291 0.21868 0.881085
14 1 0.133673 0.994401 0.594448
9 3 0.427878 0.136385 0.54067
21 2 0.101237 0.939112 0.652326
10 3 0.407829 0.193303 0.79224
19 4 0.545191 0.330713 0.747534
12 3 0.483615 0.254379 0.722099
13 1 0.277738 0.971604 0.58876
20 2 0.295448 0.910496 0.656322
7 3 0.341976 0.0870533 0.611012
11 3 0.485826 0.226773 0.596272
22 2 0.128927 0.0769919 0.646994
18 4 0.55158 0.270357 0.546169
4 2 0.3641 0.826371 0.49342
ITEM: TIMESTEP
800
ITEM: NUMBER OF ATOMS
22
ITEM: BOX BOUNDS pp pp pp
-5.79054 5.79054
-5.79054 5.79054
-5.79054 5.79054
ITEM: ATOMS id type xs ys zs
6 2 0.312281 0.049901 0.333812
2 1 0.257371 0.991866 0.383054
5 2 0.184803 0.949963 0.335223
21 2 0.0805713 0.0541584 0.498548
16 4 0.394843 0.144299 0.491676
3 2 0.379804 0.955943 0.495491
8 3 0.302073 0.141161 0.757756
15 4 0.267947 0.0806775 0.825033
17 4 0.357481 0.254378 0.910925
14 1 0.108852 0.106891 0.557871
9 3 0.392546 0.160277 0.583097
4 2 0.26779 0.870837 0.535322
10 3 0.353555 0.229124 0.819252
19 4 0.479517 0.366979 0.755142
12 3 0.41016 0.297802 0.737216
13 1 0.224647 0.0428344 0.597344
20 2 0.19001 0.980528 0.664149
7 3 0.30505 0.115795 0.644466
11 3 0.45208 0.237798 0.642495
22 2 0.0398735 0.142186 0.619068
18 4 0.514419 0.282046 0.594705
1 1 0.289106 0.960144 0.505705
ITEM: TIMESTEP
900
ITEM: NUMBER OF ATOMS
22
ITEM: BOX BOUNDS pp pp pp
-5.79054 5.79054
-5.79054 5.79054
-5.79054 5.79054
ITEM: ATOMS id type xs ys zs
6 2 0.179414 0.0159776 0.361417
2 1 0.253073 0.0172159 0.417747
5 2 0.286486 0.104693 0.393081
8 3 0.258723 0.16675 0.777518
15 4 0.196141 0.108157 0.811605
17 4 0.280751 0.258251 0.936737
14 1 0.0543536 0.183187 0.52191
9 3 0.341637 0.221254 0.595957
4 2 0.104504 0.949705 0.518963
10 3 0.31011 0.244218 0.849042
19 4 0.451249 0.350958 0.844775
12 3 0.38959 0.303758 0.791419
13 1 0.146377 0.109325 0.588014
20 2 0.0988609 0.0868161 0.666189
7 3 0.262169 0.156719 0.656087
11 3 0.417528 0.285096 0.675517
22 2 0.0438318 0.274982 0.561552
18 4 0.493124 0.3127 0.643503
1 1 0.187892 0.998737 0.526483
21 2 0.977295 0.142573 0.52891
3 2 0.232922 0.942316 0.58322
16 4 0.350909 0.232069 0.511467
ITEM: TIMESTEP
1000
ITEM: NUMBER OF ATOMS
22
ITEM: BOX BOUNDS pp pp pp
-5.79054 5.79054
-5.79054 5.79054
-5.79054 5.79054
ITEM: ATOMS id type xs ys zs
14 1 0.0463671 0.254347 0.483783
2 1 0.23902 0.0676091 0.503735
5 2 0.297336 0.997063 0.526213
21 2 -0.0180385 0.233541 0.425019
22 2 0.0272742 0.339403 0.518715
8 3 0.190983 0.194395 0.778203
15 4 0.122272 0.135032 0.788905
17 4 0.287361 0.145859 0.932474
3 2 0.136383 0.024994 0.660556
9 3 0.252499 0.324103 0.628443
4 2 0.0611086 3.60157e-05 0.526244
10 3 0.289099 0.197698 0.84849
19 4 0.460951 0.288915 0.843613
12 3 0.375296 0.264873 0.803168
13 1 0.0804114 0.185671 0.596857
20 2 1.00732 0.163761 0.660003
7 3 0.171848 0.242698 0.672221
11 3 0.35339 0.315479 0.69041
6 2 0.2663 0.152605 0.478936
18 4 0.426274 0.343383 0.648816
1 1 0.11749 0.0603523 0.573344
16 4 0.244339 0.369297 0.549998
ITEM: TIMESTEP
1100
ITEM: NUMBER OF ATOMS
22
ITEM: BOX BOUNDS pp pp pp
-5.79054 5.79054
-5.79054 5.79054
-5.79054 5.79054
ITEM: ATOMS id type xs ys zs
4 2 0.0257128 0.122344 0.436865
21 2 0.01509 0.306416 0.420156
6 2 0.173218 0.0435188 0.46628
8 3 0.164713 0.206173 0.780615
15 4 0.11507 0.13735 0.814315
17 4 0.283524 0.175191 0.951441
3 2 0.947893 0.0880834 0.555442
9 3 0.221692 0.373082 0.658332
5 2 0.201758 0.0472899 0.592357
10 3 0.252767 0.224027 0.865412
19 4 0.36408 0.337303 0.916996
12 3 0.320843 0.313678 0.841839
13 1 0.0414575 0.236746 0.59926
20 2 0.975273 0.244279 0.669373
7 3 0.14765 0.27606 0.674012
11 3 0.295476 0.39886 0.762021
16 4 0.213598 0.424409 0.579478
18 4 0.355776 0.471484 0.768701
1 1 0.0356697 0.117646 0.53265
2 1 0.127659 0.0264723 0.540758
22 2 0.97829 0.409478 0.53594
14 1 0.0316128 0.337853 0.507297
ITEM: TIMESTEP
1200
ITEM: NUMBER OF ATOMS
22
ITEM: BOX BOUNDS pp pp pp
-5.79054 5.79054
-5.79054 5.79054
-5.79054 5.79054
ITEM: ATOMS id type xs ys zs
4 2 0.911784 0.157874 0.48389
21 2 0.943532 0.369244 0.42187
8 3 0.109761 0.240642 0.797138
15 4 0.0383461 0.184209 0.799186
17 4 0.204126 0.184435 0.957543
3 2 0.910299 0.128989 0.626638
9 3 0.184144 0.410215 0.69383
5 2 0.102527 0.0654531 0.612277
10 3 0.199031 0.252331 0.883608
19 4 0.333367 0.352221 0.940584
12 3 0.272214 0.338609 0.877209
13 1 0.00116327 0.2978 0.598632
20 2 0.916893 0.325438 0.630028
7 3 0.101538 0.321801 0.701252
11 3 0.255836 0.413528 0.786845
16 4 0.195227 0.471096 0.62293
18 4 0.302494 0.499236 0.803763
1 1 0.973088 0.167128 0.563603
2 1 0.0735347 0.0952217 0.533015
22 2 0.0400494 0.461523 0.514335
14 1 0.00641682 0.380306 0.496356
6 2 0.152644 0.147912 0.521688
ITEM: TIMESTEP
1300
ITEM: NUMBER OF ATOMS
22
ITEM: BOX BOUNDS pp pp pp
-5.79054 5.79054
-5.79054 5.79054
-5.79054 5.79054
ITEM: ATOMS id type xs ys zs
21 2 0.907367 0.422555 0.436052
6 2 0.0577037 0.167407 0.437631
8 3 0.0295796 0.306515 0.834623
15 4 0.938465 0.28529 0.847957
17 4 0.108367 0.249813 1.0088
3 2 0.908599 0.165922 0.641525
9 3 0.151448 0.428616 0.707934
5 2 0.0529792 0.0774432 0.547268
10 3 0.121243 0.281558 0.916756
19 4 0.292353 0.314199 0.937173
12 3 0.223952 0.338733 0.882578
13 1 0.963741 0.351222 0.623801
20 2 0.880902 0.381993 0.654446
7 3 0.0489653 0.36791 0.723094
11 3 0.229173 0.411349 0.792695
16 4 0.164436 0.483836 0.632149
18 4 0.294347 0.487256 0.795012
1 1 0.948373 0.225649 0.571322
2 1 0.0616771 0.166365 0.535443
22 2 0.908591 0.512765 0.547147
4 2 0.899211 0.24155 0.494686
14 1 0.955286 0.446664 0.520483
ITEM: TIMESTEP
1400
ITEM: NUMBER OF ATOMS
22
ITEM: BOX BOUNDS pp pp pp
-5.79054 5.79054
-5.79054 5.79054
-5.79054 5.79054
ITEM: ATOMS id type xs ys zs
4 2 0.846586 0.334075 0.475442
17 4 0.0180772 0.345522 0.0436301
5 2 0.00814061 0.158034 0.449417
6 2 0.0217457 0.308652 0.422981
2 1 0.0173734 0.237592 0.495864
8 3 0.973448 0.348646 0.868608
15 4 0.880057 0.332551 0.889661
14 1 0.938543 0.504325 0.586422
3 2 0.847501 0.206448 0.564254
9 3 0.109431 0.415303 0.718618
21 2 0.849064 0.531677 0.550382
10 3 0.0559499 0.35956 0.959732
19 4 0.21591 0.397877 0.989611
12 3 0.157302 0.402021 0.922657
13 1 0.919801 0.377949 0.637097
20 2 0.836029 0.376853 0.67566
7 3 0.9991 0.377852 0.747135
11 3 0.198566 0.403916 0.803255
16 4 0.12671 0.46559 0.63599
18 4 0.288015 0.441518 0.785925
1 1 0.901765 0.287813 0.540391
22 2 0.955151 0.561043 0.65261
ITEM: TIMESTEP
1500
ITEM: NUMBER OF ATOMS
22
ITEM: BOX BOUNDS pp pp pp
-5.79054 5.79054
-5.79054 5.79054
-5.79054 5.79054
ITEM: ATOMS id type xs ys zs
2 1 0.971989 0.345004 0.465021
17 4 0.982532 0.443781 0.0666589
5 2 0.0453663 0.288963 0.454664
6 2 0.922378 0.347342 0.384795
19 4 0.174489 0.364375 0.00302094
8 3 0.921816 0.453852 0.887991
15 4 0.83268 0.486676 0.904989
14 1 0.864015 0.551746 0.593519
3 2 0.932915 0.245119 0.626856
9 3 0.0694979 0.41672 0.74686
22 2 0.878159 0.615165 0.662289
10 3 -0.00371723 0.430299 0.979717
1 1 0.905111 0.317941 0.573029
12 3 0.104666 0.381504 0.947327
13 1 0.879839 0.431086 0.649711
20 2 0.794142 0.424745 0.676557
7 3 0.95295 0.421606 0.770472
11 3 0.133214 0.380177 0.830597
16 4 0.108867 0.412483 0.660605
18 4 0.221044 0.362672 0.801216
4 2 0.828071 0.2736 0.558105
21 2 0.773828 0.560186 0.552584
ITEM: TIMESTEP
1600
ITEM: NUMBER OF ATOMS
22
ITEM: BOX BOUNDS pp pp pp
-5.79054 5.79054
-5.79054 5.79054
-5.79054 5.79054
ITEM: ATOMS id type xs ys zs
2 1 0.942946 0.410453 0.461224
17 4 0.927726 0.520209 0.0717813
19 4 0.119137 0.452051 0.0328235
6 2 0.99371 0.335511 0.464313
5 2 0.99404 0.484517 0.442437
8 3 0.865571 0.476499 0.894417
15 4 0.785216 0.506329 0.915347
14 1 0.839891 0.592107 0.653021
3 2 0.815073 0.306303 0.587721
9 3 0.0208635 0.412026 0.762956
22 2 0.89317 0.61235 0.577474
10 3 0.940913 0.483382 0.985778
1 1 0.843665 0.399677 0.562161
12 3 0.0484233 0.44347 0.967474
13 1 0.838812 0.466749 0.675622
20 2 0.752 0.448196 0.697064
7 3 0.902909 0.441624 0.782078
11 3 0.0823169 0.390932 0.862929
16 4 0.0597997 0.373615 0.686885
18 4 0.14736 0.330378 0.865274
4 2 0.775621 0.451315 0.514637
21 2 0.879646 0.648973 0.713807
ITEM: TIMESTEP
1700
ITEM: NUMBER OF ATOMS
22
ITEM: BOX BOUNDS pp pp pp
-5.79054 5.79054
-5.79054 5.79054
-5.79054 5.79054
ITEM: ATOMS id type xs ys zs
5 2 0.916628 0.540229 0.460182
17 4 0.871714 0.484615 0.10135
19 4 0.0201022 0.360941 0.062941
6 2 0.924531 0.399089 0.432659
10 3 0.898508 0.502956 0.0108613
2 1 0.910581 0.454194 0.499043
8 3 0.828296 0.529767 0.909768
15 4 0.753702 0.568321 0.928351
14 1 0.809229 0.665516 0.639983
3 2 0.808866 0.357198 0.624167
9 3 0.971066 0.445738 0.784023
22 2 0.816895 0.749216 0.69887
4 2 0.717852 0.437887 0.526584
1 1 0.801267 0.439939 0.575588
12 3 0.984003 0.42216 0.993086
13 1 0.789269 0.537173 0.683019
20 2 0.705918 0.537858 0.720181
7 3 0.864391 0.504213 0.791562
11 3 0.0332046 0.411144 0.888662
16 4 0.0219717 0.463092 0.707776
18 4 0.0906062 0.341587 0.888859
21 2 0.743202 0.689212 0.579961
ITEM: TIMESTEP
1800
ITEM: NUMBER OF ATOMS
22
ITEM: BOX BOUNDS pp pp pp
-5.79054 5.79054
-5.79054 5.79054
-5.79054 5.79054
ITEM: ATOMS id type xs ys zs
5 2 0.891013 0.56134 0.469627
17 4 0.783256 0.520976 0.110367
19 4 0.978312 0.409224 0.0910308
6 2 0.8783 0.405922 0.493049
10 3 0.826631 0.511386 0.0240888
12 3 0.93506 0.456384 0.0105281
8 3 0.774981 0.557975 0.92539
15 4 0.695783 0.591302 0.936178
14 1 0.804262 0.704622 0.670147
3 2 0.704126 0.458255 0.580683
9 3 0.922289 0.478838 0.798991
22 2 0.841078 0.742833 0.758298
4 2 0.728286 0.578228 0.508182
1 1 0.754557 0.524508 0.574316
2 1 0.872825 0.489289 0.534453
13 1 0.74457 0.590075 0.700836
20 2 0.6557 0.624673 0.714278
7 3 0.821437 0.543551 0.812042
11 3 0.97891 0.441221 0.894813
16 4 0.954113 0.432079 0.71907
18 4 0.0262157 0.357339 0.882497
21 2 0.762259 0.771193 0.6123
ITEM: TIMESTEP
1900
ITEM: NUMBER OF ATOMS
22
ITEM: BOX BOUNDS pp pp pp
-5.79054 5.79054
-5.79054 5.79054
-5.79054 5.79054
ITEM: ATOMS id type xs ys zs
5 2 0.804773 0.645776 0.443525
17 4 0.689423 0.542656 0.112418
19 4 0.872325 0.416118 0.122352
12 3 0.853854 0.463036 0.0371652
10 3 0.752833 0.535977 0.0386668
6 2 0.759121 0.486928 0.454738
8 3 0.715709 0.588524 0.932382
15 4 0.631138 0.6159 0.924225
14 1 0.825457 0.737832 0.682876
3 2 0.694111 0.488514 0.620497
9 3 0.880941 0.519855 0.830897
22 2 0.833725 0.753142 0.585498
4 2 0.631878 0.616867 0.581145
1 1 0.713251 0.575116 0.613935
2 1 0.796089 0.56535 0.503128
13 1 0.747101 0.640006 0.714918
20 2 0.673901 0.689178 0.751865
7 3 0.774372 0.565728 0.824547
11 3 0.925052 0.482899 0.938549
16 4 0.923346 0.511516 0.744583
18 4 0.0135888 0.438548 0.931733
21 2 0.846326 0.807419 0.743355
ITEM: TIMESTEP
2000
ITEM: NUMBER OF ATOMS
22
ITEM: BOX BOUNDS pp pp pp
-5.79054 5.79054
-5.79054 5.79054
-5.79054 5.79054
ITEM: ATOMS id type xs ys zs
6 2 0.672019 0.529288 0.501407
17 4 0.585081 0.487252 0.0474375
19 4 0.785567 0.40956 0.0936478
12 3 0.782035 0.488783 0.0472075
10 3 0.672545 0.527131 0.0154005
8 3 0.658545 0.619481 0.925077
15 4 0.574871 0.637345 0.895064
14 1 0.83239 0.767517 0.689786
3 2 0.646662 0.545062 0.692056
9 3 0.854958 0.58266 0.864626
22 2 0.87774 0.84113 0.729636
4 2 0.574995 0.664034 0.638509
1 1 0.664874 0.622795 0.650368
2 1 0.729383 0.601267 0.538602
13 1 0.719181 0.706585 0.741158
20 2 0.649519 0.770784 0.749286
7 3 0.751129 0.649371 0.848031
11 3 0.86741 0.505554 0.957558
16 4 0.919962 0.569637 0.791099
18 4 0.943856 0.444953 0.945265
21 2 0.886287 0.697446 0.664471
5 2 0.736895 0.66749 0.471354
