ITEM: TIMESTEP
0
ITEM: NUMBER OF ATOMS
44
ITEM: BOX BOUNDS pp pp pp
-5.79054 5.79054
-5.79054 5.79054
-5.79054 5.79054
ITEM: ATOMS id type xs ys zs
7 3 0.757683 0.381404 0.437835
8 3 0.819938 0.480965 0.410078
9 3 0.815798 0.275654 0.443309
10 3 0.938283 0.475054 0.388544
11 3 0.934153 0.269799 0.422345
12 3 0.995579 0.369499 0.394934
13 1 0.627638 0.388432 0.459755
14 1 0.562741 0.33599 0.354711
15 4 0.77638 0.563982 0.404503
16 4 0.768932 0.197035 0.46391
17 4 0.985924 0.552892 0.366705
18 4 0.978445 0.187217 0.427278
19 4 0.0878907 0.364927 0.378258
20 2 0.605227 0.479936 0.465483
21 2 0.571676 0.242023 0.354621
22 2 0.60506 0.367147 0.27621
23 1 0.3821 0.332315 0.230627
24 1 0.433719 0.369111 0.34746
25 2 0.290112 0.353241 0.227282
26 2 0.425152 0.377037 0.159554
27 2 0.423323 0.462324 0.358382
28 2 0.385169 0.326074 0.415578
29 3 0.243349 0.379008 0.0351369
30 3 0.205706 0.396491 0.148225
32 3 0.172397 0.506212 0.18484
34 3 0.176404 0.598986 0.108333
37 4 0.202269 0.324302 0.208177
39 4 0.143118 0.519342 0.273081
41 4 0.150052 0.68451 0.136741
1 1 0.596678 0.330671 0.577045
2 1 0.48676 0.378771 0.634884
3 2 0.58935 0.237098 0.567195
4 2 0.667755 0.345909 0.637263
5 2 0.407997 0.34145 0.599435
6 2 0.482629 0.4729 0.62982
31 3 0.248128 0.472416 0.958977
33 3 0.214325 0.582058 0.995392
35 1 0.278864 0.258723 0.996961
36 1 0.227259 0.221936 0.880157
38 4 0.277738 0.459948 0.870746
40 4 0.217495 0.654379 0.935607
42 2 0.372844 0.25053 0.996023
43 2 0.23956 0.129384 0.866915
44 2 0.134747 0.240156 0.87764
ITEM: TIMESTEP
100
ITEM: NUMBER OF ATOMS
44
ITEM: BOX BOUNDS pp pp pp
-5.79054 5.79054
-5.79054 5.79054
-5.79054 5.79054
ITEM: ATOMS id type xs ys zs
7 3 0.747845 0.3685 0.390136
8 3 0.80772 0.466648 0.374331
9 3 0.81386 0.268358 0.376844
10 3 0.920981 0.472114 0.401506
11 3 0.932247 0.271247 0.398514
12 3 0.970517 0.375491 0.45191
13 1 0.611845 0.370198 0.396214
14 1 0.555848 0.33985 0.279608
15 4 0.757904 0.543426 0.357224
16 4 0.762025 0.193242 0.35631
17 4 0.959569 0.556988 0.393388
18 4 0.981927 0.192035 0.390459
19 4 0.0588659 0.382977 0.483512
20 2 0.600342 0.456455 0.418224
21 2 0.587111 0.263183 0.23812
22 2 0.610064 0.402332 0.235811
23 1 0.452641 0.363432 0.112516
24 1 0.445001 0.354341 0.245962
25 2 0.482712 0.284098 0.0885594
26 2 0.502854 0.448858 0.0950436
27 2 0.407789 0.434342 0.261059
28 2 0.40168 0.280732 0.266473
29 3 0.277413 0.454718 0.045408
30 3 0.164768 0.441197 0.0807389
32 3 0.0704939 0.508383 0.0551006
5 2 0.371821 0.395675 0.497365
37 4 0.138815 0.368947 0.118367
39 4 0.975825 0.503334 0.0714477
42 2 0.305503 0.298996 0.130736
35 1 0.33544 0.332993 0.0564302
31 3 0.319128 0.568102 0.0191428
1 1 0.5604 0.311136 0.503573
2 1 0.448983 0.381753 0.548034
40 4 0.233541 0.714202 0.925237
4 2 0.615727 0.324665 0.587492
43 2 0.292714 0.169872 0.967098
6 2 0.469109 0.459766 0.597521
33 3 0.220857 0.634842 0.97648
38 4 0.405946 0.584307 0.997801
44 2 0.408714 0.274479 0.899593
36 1 0.322951 0.259301 0.94193
34 3 0.102457 0.600065 0.986351
41 4 0.0451432 0.662887 0.939349
3 2 0.562 0.21368 0.501632
ITEM: TIMESTEP
200
ITEM: NUMBER OF ATOMS
44
ITEM: BOX BOUNDS pp pp pp
-5.79054 5.79054
-5.79054 5.79054
-5.79054 5.79054
ITEM: ATOMS id type xs ys zs
7 3 0.752618 0.369343 0.415339
8 3 0.807018 0.471231 0.409347
9 3 0.818249 0.274415 0.433657
10 3 0.93145 0.476923 0.416705
11 3 0.941096 0.27985 0.439613
12 3 1.00076 0.376831 0.416933
13 1 0.618955 0.380553 0.368902
14 1 0.596616 0.378129 0.22455
15 4 0.757481 0.548412 0.389838
16 4 0.768949 0.195732 0.434928
17 4 0.977425 0.55909 0.408976
18 4 0.982194 0.195196 0.448619
19 4 0.0928136 0.365259 0.400153
20 2 0.598043 0.466685 0.395008
21 2 0.644239 0.309616 0.186934
22 2 0.638966 0.454773 0.20218
23 1 0.471295 0.342819 0.0513682
24 1 0.464865 0.359204 0.181734
5 2 0.366753 0.311093 0.47924
26 2 0.532764 0.405261 0.0141525
27 2 0.408732 0.423642 0.212936
28 2 0.418987 0.297468 0.229617
29 3 0.252966 0.47254 0.0118572
30 3 0.139292 0.464941 0.000592046
1 1 0.534288 0.296883 0.425943
3 2 0.555116 0.214724 0.377248
37 4 0.10928 0.386614 0.0273299
25 2 0.512274 0.269881 0.0321778
42 2 0.29514 0.294952 0.0418633
6 2 0.400735 0.445358 0.441775
2 1 0.406438 0.35588 0.416917
38 4 0.38105 0.591196 -0.0101899
34 3 0.0887303 0.636485 0.926886
39 4 0.95888 0.528547 0.984381
40 4 0.255158 0.736301 0.896372
4 2 0.559832 0.277539 0.517202
43 2 0.36547 0.263053 0.808155
32 3 0.0495174 0.540047 0.965985
33 3 0.20917 0.662011 0.935597
41 4 0.0248801 0.697512 0.887691
44 2 0.331171 0.419495 0.80028
36 1 0.330858 0.344633 0.8579
31 3 0.286899 0.585623 0.988203
35 1 0.339717 0.361972 0.99183
ITEM: TIMESTEP
300
ITEM: NUMBER OF ATOMS
44
ITEM: BOX BOUNDS pp pp pp
-5.79054 5.79054
-5.79054 5.79054
-5.79054 5.79054
ITEM: ATOMS id type xs ys zs
7 3 0.720245 0.391731 0.328259
8 3 0.788863 0.495988 0.353933
9 3 0.777152 0.287353 0.360762
10 3 0.90635 0.486204 0.395952
11 3 0.856681 0.282104 0.442385
12 3 0.935247 0.372459 0.435609
13 1 0.59312 0.37284 0.29617
14 1 0.570871 0.377509 0.167862
15 4 0.746014 0.573675 0.327419
16 4 0.738665 0.202007 0.333179
17 4 0.966887 0.556072 0.4106
18 4 0.88854 0.196097 0.466449
1 1 0.521412 0.278302 0.37185
20 2 0.555442 0.450175 0.335289
21 2 0.582101 0.284879 0.149506
22 2 0.638538 0.425783 0.128526
23 1 0.461355 0.456469 0.0150208
24 1 0.438998 0.416687 0.13803
4 2 0.584086 0.229887 0.411657
2 1 0.419498 0.33692 0.459026
27 2 0.396002 0.490218 0.180724
28 2 0.374588 0.348587 0.161838
3 2 0.47671 0.223342 0.309017
5 2 0.34045 0.297377 0.480192
41 4 0.0677 0.694757 0.0279529
19 4 0.0200495 0.349711 0.468422
34 3 0.12968 0.634312 0.984573
6 2 0.458247 0.362579 0.540137
40 4 0.247004 0.778645 0.926736
29 3 0.27754 0.499538 0.879234
43 2 0.501257 0.379981 0.777647
32 3 0.0912029 0.529473 0.961676
33 3 0.220955 0.682423 0.925205
37 4 0.163444 0.369859 0.905252
44 2 0.460987 0.240446 0.860864
36 1 0.441175 0.33117 0.841277
31 3 0.302793 0.610988 0.876902
35 1 0.360533 0.400373 0.934577
30 3 0.16717 0.464726 0.903244
38 4 0.393647 0.6331 0.868017
25 2 0.531137 0.422918 0.975767
42 2 0.311335 0.334989 0.981871
26 2 0.471723 0.549484 1.00088
39 4 0.00887816 0.488677 0.997799
ITEM: TIMESTEP
400
ITEM: NUMBER OF ATOMS
44
ITEM: BOX BOUNDS pp pp pp
-5.79054 5.79054
-5.79054 5.79054
-5.79054 5.79054
ITEM: ATOMS id type xs ys zs
7 3 0.686025 0.368067 0.351889
8 3 0.72884 0.459988 0.418639
9 3 0.768847 0.28269 0.307098
10 3 0.848867 0.480758 0.412994
11 3 0.879672 0.286488 0.353983
12 3 0.916112 0.392417 0.388367
13 1 0.56198 0.393999 0.292167
14 1 0.57819 0.375894 0.170245
15 4 0.680444 0.534651 0.42897
16 4 0.751877 0.207269 0.250037
17 4 0.882199 0.566028 0.432172
18 4 0.948026 0.231017 0.31724
1 1 0.489716 0.300019 0.329334
20 2 0.529843 0.479966 0.31018
21 2 0.602647 0.282015 0.150588
22 2 0.65736 0.418795 0.149578
19 4 0.00471015 0.416859 0.400708
24 1 0.480151 0.420589 0.0762282
4 2 0.536891 0.248537 0.382328
2 1 0.378337 0.352581 0.381843
27 2 0.441146 0.499677 0.107493
28 2 0.415365 0.360989 0.0698707
3 2 0.456627 0.2554 0.261722
5 2 0.407566 0.43045 0.428805
6 2 0.359191 0.310872 0.462017
34 3 0.0978237 0.643931 0.864788
42 2 0.366558 0.349837 0.852538
40 4 0.212537 0.775714 0.813408
29 3 0.30786 0.521957 0.881615
43 2 0.483989 0.550454 0.724099
32 3 0.105386 0.548968 0.93769
33 3 0.205551 0.679118 0.828509
37 4 0.193668 0.389064 0.949664
44 2 0.52799 0.401931 0.726892
36 1 0.454755 0.457953 0.728888
31 3 0.307821 0.634486 0.864352
35 1 0.400558 0.441165 0.849444
30 3 0.208439 0.484495 0.938335
38 4 0.391016 0.673421 0.853504
25 2 0.564417 0.364769 0.910411
23 1 0.508419 0.430512 0.940187
41 4 0.0193221 0.691857 0.855524
39 4 0.0315664 0.491174 0.947191
26 2 0.579261 0.498339 0.933032
ITEM: TIMESTEP
500
ITEM: NUMBER OF ATOMS
44
ITEM: BOX BOUNDS pp pp pp
-5.79054 5.79054
-5.79054 5.79054
-5.79054 5.79054
ITEM: ATOMS id type xs ys zs
7 3 0.681146 0.39467 0.285346
8 3 0.693332 0.452528 0.392537
9 3 0.766591 0.320077 0.251397
10 3 0.80412 0.45456 0.445669
11 3 0.85563 0.30173 0.329131
12 3 0.887812 0.379834 0.409447
13 1 0.564157 0.393382 0.23051
14 1 0.576748 0.405998 0.0985507
15 4 0.61667 0.492679 0.420645
16 4 0.740449 0.251505 0.194008
6 2 0.343318 0.400116 0.366121
18 4 0.930432 0.251736 0.300568
1 1 0.49096 0.308259 0.301618
20 2 0.525495 0.475464 0.265686
21 2 0.61804 0.319299 0.0601087
22 2 0.624292 0.480974 0.0982462
19 4 0.972919 0.378359 0.44923
24 1 0.46156 0.437746 0.0408827
4 2 0.52165 0.30107 0.384375
2 1 0.356857 0.34793 0.292718
27 2 0.404597 0.493087 0.0910419
28 2 0.424593 0.356478 0.0170292
3 2 0.500272 0.228915 0.264808
5 2 0.307982 0.384268 0.219282
17 4 0.816828 0.490413 0.528561
34 3 0.108239 0.654367 0.838458
42 2 0.409903 0.380978 0.801009
40 4 0.174435 0.786991 0.748929
29 3 0.314629 0.532825 0.811821
43 2 0.540288 0.581483 0.728052
32 3 0.130509 0.575566 0.90838
33 3 0.202118 0.704418 0.800888
26 2 0.564319 0.551718 0.937582
44 2 0.586345 0.429326 0.704449
36 1 0.51296 0.490751 0.708695
31 3 0.303414 0.644723 0.782166
35 1 0.430938 0.470591 0.807316
30 3 0.219642 0.501092 0.884485
38 4 0.370674 0.693035 0.733586
25 2 0.567814 0.424365 0.897268
23 1 0.498581 0.477379 0.924411
41 4 0.0149321 0.665656 0.830579
39 4 0.0622398 0.553643 0.980431
37 4 0.223582 0.425562 0.946603
ITEM: TIMESTEP
600
ITEM: NUMBER OF ATOMS
44
ITEM: BOX BOUNDS pp pp pp
-5.79054 5.79054
-5.79054 5.79054
-5.79054 5.79054
ITEM: ATOMS id type xs ys zs
7 3 0.657522 0.38399 0.278167
8 3 0.653498 0.438839 0.380536
9 3 0.748246 0.316804 0.247876
10 3 0.751967 0.446583 0.45333
11 3 0.846662 0.315816 0.320508
12 3 0.852552 0.377394 0.428357
13 1 0.556668 0.418337 0.19345
14 1 0.587441 0.468978 0.0649427
15 4 0.578953 0.487791 0.394792
16 4 0.725738 0.254449 0.174849
6 2 0.316877 0.397358 0.286442
18 4 0.92211 0.272794 0.289278
1 1 0.493801 0.306124 0.207084
20 2 0.499306 0.477146 0.239964
21 2 0.659355 0.412613 0.00910769
22 2 0.630334 0.547861 0.0791292
19 4 0.927488 0.372109 0.486718
3 2 0.522471 0.240973 0.148072
4 2 0.509356 0.264203 0.287216
2 1 0.357016 0.340683 0.222323
27 2 0.433485 0.550108 0.0162501
5 2 0.325504 0.354754 0.137668
34 3 0.115713 0.685239 0.820409
42 2 0.40676 0.378857 0.765887
40 4 0.189725 0.792231 0.691106
29 3 0.328108 0.557077 0.770388
43 2 0.594775 0.529912 0.63811
32 3 0.139376 0.579084 0.882486
33 3 0.209958 0.724548 0.753315
26 2 0.550293 0.588454 0.845522
44 2 0.47685 0.455882 0.552639
36 1 0.507555 0.495176 0.633002
31 3 0.308456 0.668991 0.747685
35 1 0.434321 0.47425 0.753217
30 3 0.23983 0.513656 0.841693
38 4 0.377001 0.704374 0.689791
25 2 0.600369 0.455749 0.830033
23 1 0.517329 0.497083 0.853676
41 4 0.0325641 0.734941 0.836343
39 4 0.0877125 0.543208 0.962778
37 4 0.267789 0.441021 0.903053
17 4 0.738183 0.494816 0.52768
28 2 0.446553 0.39967 0.993289
24 1 0.48259 0.482411 0.983784
ITEM: TIMESTEP
700
ITEM: NUMBER OF ATOMS
44
ITEM: BOX BOUNDS pp pp pp
-5.79054 5.79054
-5.79054 5.79054
-5.79054 5.79054
ITEM: ATOMS id type xs ys zs
7 3 0.653327 0.425173 0.217538
8 3 0.636444 0.468339 0.329584
9 3 0.727584 0.328004 0.227426
10 3 0.702874 0.44312 0.432538
11 3 0.818658 0.311252 0.321065
12 3 0.809487 0.386202 0.417875
13 1 0.548238 0.439732 0.13751
14 1 0.590742 0.466843 0.0136149
15 4 0.573527 0.532049 0.344683
16 4 0.726213 0.268262 0.155169
6 2 0.328351 0.312263 0.20147
18 4 0.877869 0.24022 0.313728
1 1 0.502297 0.307988 0.142452
20 2 0.479374 0.499347 0.151169
5 2 0.334322 0.402836 0.0951566
22 2 0.649681 0.5309 0.0370116
19 4 0.860064 0.361655 0.49175
3 2 0.547488 0.241439 0.0928175
4 2 0.503108 0.27514 0.233829
2 1 0.360724 0.316454 0.111059
34 3 0.133357 0.702818 0.78336
42 2 0.43462 0.388761 0.767862
40 4 0.242061 0.851878 0.74462
29 3 0.32509 0.569154 0.754533
43 2 0.517166 0.394527 0.587817
32 3 0.131129 0.588274 0.829127
33 3 0.234396 0.763747 0.742681
26 2 0.558384 0.615616 0.771079
44 2 0.390728 0.472372 0.578982
36 1 0.474983 0.477985 0.612838
31 3 0.332312 0.684515 0.737187
35 1 0.439936 0.484077 0.740191
30 3 0.233781 0.528966 0.823361
38 4 0.420659 0.716113 0.716029
25 2 0.624375 0.479992 0.76848
23 1 0.544037 0.533018 0.801013
41 4 0.0502518 0.741537 0.824233
39 4 0.0517357 0.535148 0.854185
37 4 0.223157 0.436414 0.82147
27 2 0.504571 0.606619 0.954478
28 2 0.42173 0.488531 0.947978
24 1 0.511485 0.519998 0.929369
21 2 0.636906 0.402142 0.965788
17 4 0.677211 0.472654 0.515815
ITEM: TIMESTEP
800
ITEM: NUMBER OF ATOMS
44
ITEM: BOX BOUNDS pp pp pp
-5.79054 5.79054
-5.79054 5.79054
-5.79054 5.79054
ITEM: ATOMS id type xs ys zs
7 3 0.639475 0.423565 0.185486
8 3 0.622481 0.491215 0.285065
9 3 0.699848 0.324608 0.218188
10 3 0.706646 0.490374 0.371664
11 3 0.797385 0.334784 0.290105
12 3 0.801607 0.413988 0.38486
13 1 0.551934 0.433998 0.0905003
17 4 0.69485 0.550994 0.445492
15 4 0.556005 0.548559 0.280491
16 4 0.718782 0.263403 0.15291
6 2 0.311225 0.391891 0.0183874
18 4 0.86512 0.271489 0.284261
1 1 0.48491 0.314054 0.0917737
20 2 0.50761 0.499503 0.119485
2 1 0.367667 0.311916 0.011891
4 2 0.469336 0.303411 0.183838
19 4 0.860711 0.405254 0.458325
3 2 0.553822 0.248347 0.0672397
34 3 0.139173 0.731263 0.765697
42 2 0.3841 0.424561 0.746465
40 4 0.249638 0.867469 0.733628
29 3 0.323573 0.586049 0.730537
43 2 0.464183 0.368179 0.604929
32 3 0.106337 0.613204 0.748324
33 3 0.250015 0.780353 0.75118
26 2 0.594822 0.574857 0.740598
44 2 0.52494 0.488911 0.538096
36 1 0.453325 0.459457 0.5873
31 3 0.344608 0.704945 0.745523
35 1 0.423529 0.51132 0.711548
30 3 0.210007 0.546589 0.768236
38 4 0.430303 0.738724 0.711163
25 2 0.59098 0.432858 0.755866
23 1 0.540543 0.514721 0.778483
41 4 0.0693169 0.795961 0.777144
39 4 0.0224723 0.580094 0.777739
37 4 0.213166 0.463145 0.80786
27 2 0.548674 0.633145 0.922145
28 2 0.447495 0.527191 0.938152
24 1 0.53472 0.546028 0.908594
21 2 0.589816 0.375195 0.926919
14 1 0.608869 0.453223 0.97023
5 2 0.402306 0.330792 0.921844
22 2 0.69631 0.480074 0.974794
ITEM: TIMESTEP
900
ITEM: NUMBER OF ATOMS
44
ITEM: BOX BOUNDS pp pp pp
-5.79054 5.79054
-5.79054 5.79054
-5.79054 5.79054
ITEM: ATOMS id type xs ys zs
7 3 0.615174 0.434378 0.154918
8 3 0.621226 0.525352 0.233279
9 3 0.693633 0.342465 0.17461
10 3 0.711018 0.525903 0.31863
11 3 0.78783 0.353833 0.244686
12 3 0.799588 0.444557 0.3193
13 1 0.50982 0.425825 0.0570086
17 4 0.724608 0.604787 0.373746
15 4 0.559994 0.595336 0.250184
16 4 0.683204 0.250663 0.152871
3 2 0.514886 0.246755 0.104551
18 4 0.838819 0.278484 0.257057
1 1 0.449286 0.309152 0.0736586
20 2 0.445749 0.486919 0.0890722
19 4 0.880187 0.456325 0.368877
4 2 0.396816 0.316213 0.155067
34 3 0.157939 0.755055 0.730101
42 2 0.392239 0.426497 0.710603
40 4 0.280293 0.870799 0.765794
29 3 0.323068 0.592443 0.700886
43 2 0.446471 0.571068 0.515732
32 3 0.120394 0.644525 0.720815
33 3 0.266072 0.779604 0.738286
26 2 0.577644 0.594583 0.690876
44 2 0.494583 0.417512 0.545153
36 1 0.457236 0.498374 0.568458
31 3 0.3548 0.701817 0.711982
35 1 0.423474 0.511809 0.69032
30 3 0.207996 0.554544 0.711313
38 4 0.443678 0.732293 0.71059
25 2 0.578547 0.45216 0.711641
23 1 0.534186 0.53365 0.748634
41 4 0.103558 0.830346 0.729689
39 4 0.0308285 0.638497 0.710779
37 4 0.183529 0.466337 0.701814
27 2 0.620349 0.614487 0.873269
28 2 0.477235 0.599157 0.909783
24 1 0.553824 0.555362 0.87054
21 2 0.572171 0.362221 0.886255
14 1 0.577198 0.441795 0.938434
5 2 0.336196 0.210532 0.941119
22 2 0.661892 0.470893 0.95989
6 2 0.301891 0.357655 0.943272
2 1 0.37596 0.293768 0.960604
ITEM: TIMESTEP
1000
ITEM: NUMBER OF ATOMS
44
ITEM: BOX BOUNDS pp pp pp
-5.79054 5.79054
-5.79054 5.79054
-5.79054 5.79054
ITEM: ATOMS id type xs ys zs
7 3 0.608007 0.427948 0.109575
8 3 0.611917 0.535507 0.162111
9 3 0.709406 0.358739 0.123236
10 3 0.689244 0.560241 0.244991
11 3 0.782645 0.381435 0.213588
12 3 0.769873 0.480045 0.282416
13 1 0.506746 0.409373 0.0244556
17 4 0.684945 0.634249 0.302394
15 4 0.535512 0.588327 0.152338
16 4 0.718463 0.27511 0.0711636
6 2 0.267658 0.379779 0.0590061
18 4 0.847282 0.325282 0.243081
1 1 0.447434 0.292438 0.034974
20 2 0.439652 0.46772 0.0461695
19 4 0.840627 0.501894 0.341391
4 2 0.449546 0.264277 0.128322
43 2 0.476431 0.594569 0.4833
2 1 0.309741 0.311997 0.00706735
44 2 0.392971 0.493803 0.452867
5 2 0.258968 0.236925 0.0125557
34 3 0.164417 0.763867 0.720074
42 2 0.427255 0.420363 0.64647
40 4 0.27266 0.905112 0.722412
29 3 0.347347 0.610072 0.659047
3 2 0.499543 0.228856 0.982282
32 3 0.142141 0.653718 0.686512
33 3 0.273525 0.805632 0.716776
26 2 0.557264 0.65414 0.708349
22 2 0.617408 0.402532 0.891582
36 1 0.471307 0.506777 0.508826
31 3 0.367487 0.737764 0.676396
35 1 0.449473 0.511132 0.635233
30 3 0.229962 0.57746 0.659977
38 4 0.452305 0.780173 0.662449
25 2 0.626766 0.521473 0.7048
23 1 0.546393 0.559773 0.720804
41 4 0.0985915 0.82441 0.736744
39 4 0.0533511 0.639386 0.673163
37 4 0.205825 0.491479 0.64186
27 2 0.610226 0.597663 0.884866
28 2 0.451737 0.589673 0.883022
24 1 0.532159 0.553931 0.85417
21 2 0.463246 0.368465 0.838796
14 1 0.526688 0.426299 0.895979
ITEM: TIMESTEP
1100
ITEM: NUMBER OF ATOMS
44
ITEM: BOX BOUNDS pp pp pp
-5.79054 5.79054
-5.79054 5.79054
-5.79054 5.79054
ITEM: ATOMS id type xs ys zs
7 3 0.572352 0.455127 0.0675831
8 3 0.581081 0.558033 0.124706
9 3 0.674671 0.387911 0.0524599
10 3 0.685345 0.59594 0.179449
11 3 0.763234 0.400654 0.131854
12 3 0.768443 0.506919 0.189899
3 2 0.4742 0.225103 0.0523744
17 4 0.691248 0.669581 0.23483
15 4 0.508145 0.621725 0.110504
36 1 0.484568 0.584337 0.478714
6 2 0.232 0.33349 0.0531064
18 4 0.826596 0.335005 0.148898
1 1 0.414543 0.296885 0.0690706
20 2 0.395993 0.469176 0.0193501
19 4 0.837589 0.515156 0.253896
4 2 0.407523 0.309021 0.161683
43 2 0.558871 0.641537 0.454139
2 1 0.288493 0.264766 0.0191688
44 2 0.397932 0.618922 0.435224
5 2 0.275527 0.181831 0.0520664
13 1 0.46732 0.414812 0.00392101
34 3 0.173734 0.766385 0.651421
42 2 0.431876 0.484757 0.588313
40 4 0.280615 0.920892 0.671775
29 3 0.375282 0.633196 0.644141
14 1 0.475572 0.414861 0.866352
32 3 0.166471 0.653063 0.660002
33 3 0.277845 0.819136 0.673496
26 2 0.637961 0.606075 0.646541
22 2 0.509345 0.344247 0.833928
21 2 0.393671 0.414992 0.820505
31 3 0.382211 0.756845 0.657796
35 1 0.476285 0.564121 0.598593
30 3 0.268049 0.587244 0.64974
38 4 0.464209 0.807597 0.650289
25 2 0.628824 0.45966 0.655601
23 1 0.574918 0.531909 0.683144
41 4 0.101068 0.822715 0.640528
39 4 0.0873881 0.615574 0.663616
37 4 0.271757 0.491 0.642739
27 2 0.634763 0.530592 0.864837
28 2 0.507883 0.599406 0.836485
24 1 0.551359 0.521188 0.81276
16 4 0.681387 0.30546 0.988778
ITEM: TIMESTEP
1200
ITEM: NUMBER OF ATOMS
44
ITEM: BOX BOUNDS pp pp pp
-5.79054 5.79054
-5.79054 5.79054
-5.79054 5.79054
ITEM: ATOMS id type xs ys zs
7 3 0.559006 0.445872 0.0450058
8 3 0.557529 0.555446 0.0994926
9 3 0.658825 0.397646 0.0118742
10 3 0.657645 0.610108 0.132976
11 3 0.763228 0.456064 0.029755
12 3 0.765663 0.559903 0.0971478
43 2 0.578674 0.629186 0.428984
17 4 0.655336 0.691387 0.187497
15 4 0.471347 0.607021 0.0952531
36 1 0.549215 0.542431 0.466439
5 2 0.200364 0.357923 -0.00947157
18 4 0.845279 0.42574 -0.00322021
4 2 0.38999 0.301002 0.0744605
44 2 0.502638 0.500821 0.389846
19 4 0.845244 0.588844 0.13938
34 3 0.210327 0.778152 0.667794
42 2 0.437984 0.470584 0.601225
40 4 0.349684 0.917224 0.654345
29 3 0.386428 0.632947 0.60293
14 1 0.472697 0.433433 0.849635
32 3 0.182463 0.656942 0.662773
33 3 0.315821 0.827975 0.63676
26 2 0.603336 0.656611 0.665834
22 2 0.543083 0.388218 0.80846
21 2 0.407905 0.401463 0.795706
31 3 0.40462 0.751597 0.601776
35 1 0.483886 0.550011 0.57903
30 3 0.276493 0.589917 0.625782
38 4 0.492758 0.785359 0.580415
25 2 0.620488 0.504755 0.684425
23 1 0.555312 0.569917 0.685791
41 4 0.144094 0.839329 0.688649
39 4 0.0965818 0.630641 0.667617
37 4 0.255375 0.505957 0.584294
27 2 0.547631 0.590221 0.878214
28 2 0.416786 0.608271 0.820091
24 1 0.493641 0.558425 0.807883
6 2 0.226232 0.315091 0.861462
13 1 0.444925 0.420557 0.975636
3 2 0.43409 0.231572 0.962443
20 2 0.383397 0.490962 0.995236
2 1 0.249002 0.291255 0.948865
16 4 0.661262 0.324896 0.940784
1 1 0.38361 0.303136 0.987098
ITEM: TIMESTEP
1300
ITEM: NUMBER OF ATOMS
44
ITEM: BOX BOUNDS pp pp pp
-5.79054 5.79054
-5.79054 5.79054
-5.79054 5.79054
ITEM: ATOMS id type xs ys zs
7 3 0.540938 0.496512 0.0040553
8 3 0.556842 0.591067 0.0723562
4 2 0.395384 0.321115 0.0600789
10 3 0.649575 0.596942 0.139489
11 3 0.737908 0.45212 0.00821512
12 3 0.748776 0.543903 0.0970731
43 2 0.573272 0.658201 0.408486
17 4 0.646947 0.666538 0.205952
15 4 0.479492 0.654021 0.0889077
36 1 0.54473 0.568259 0.423334
19 4 0.825088 0.566001 0.150199
44 2 0.523235 0.524181 0.35174
18 4 0.814757 0.402391 -0.0230491
34 3 0.215506 0.797968 0.610289
42 2 0.442293 0.462868 0.550004
40 4 0.373786 0.921966 0.582693
29 3 0.377956 0.632153 0.563223
14 1 0.451279 0.464875 0.794328
32 3 0.179595 0.682257 0.620429
33 3 0.340557 0.837171 0.596796
26 2 0.637051 0.616278 0.623891
22 2 0.495186 0.38794 0.749021
21 2 0.371462 0.480146 0.754149
31 3 0.407423 0.751344 0.557813
35 1 0.478087 0.551736 0.541421
30 3 0.262807 0.606645 0.585489
38 4 0.489912 0.775927 0.523813
25 2 0.625566 0.470908 0.651473
23 1 0.572532 0.546896 0.636278
41 4 0.156585 0.871449 0.608218
39 4 0.106523 0.657158 0.667878
37 4 0.238606 0.521259 0.612851
27 2 0.561266 0.594151 0.822949
28 2 0.440314 0.631531 0.752219
24 1 0.511897 0.571763 0.757629
6 2 0.260416 0.229571 0.838597
13 1 0.431621 0.455163 0.929481
3 2 0.450403 0.262371 0.930018
20 2 0.353503 0.515734 0.953489
2 1 0.274646 0.277989 0.916105
16 4 0.614554 0.338987 0.929048
1 1 0.395041 0.326699 0.968855
5 2 0.190824 0.31889 0.944818
9 3 0.632447 0.418793 0.97731
ITEM: TIMESTEP
1400
ITEM: NUMBER OF ATOMS
44
ITEM: BOX BOUNDS pp pp pp
-5.79054 5.79054
-5.79054 5.79054
-5.79054 5.79054
ITEM: ATOMS id type xs ys zs
18 4 0.825706 0.38792 0.0396317
8 3 0.545197 0.584805 0.0436176
4 2 0.383051 0.370766 0.0134643
10 3 0.631601 0.608258 0.128644
11 3 0.746185 0.448449 0.0466569
12 3 0.73337 0.539389 0.126486
43 2 0.545091 0.626472 0.386651
17 4 0.63039 0.68339 0.180922
15 4 0.45365 0.619873 0.0662007
36 1 0.502102 0.539273 0.377851
19 4 0.811622 0.56951 0.170904
44 2 0.435024 0.525349 0.317477
37 4 0.226829 0.557733 0.489722
34 3 0.201098 0.840385 0.541953
7 3 0.553147 0.484015 0.975803
40 4 0.355629 0.952446 0.538981
29 3 0.368869 0.662531 0.528784
14 1 0.505162 0.438262 0.767016
32 3 0.165711 0.721336 0.540616
33 3 0.312532 0.870449 0.521855
26 2 0.59871 0.647764 0.563563
22 2 0.57833 0.372585 0.762166
21 2 0.434591 0.405856 0.712916
31 3 0.391109 0.777305 0.50931
35 1 0.456096 0.554451 0.501058
30 3 0.250889 0.639838 0.525613
38 4 0.478855 0.802773 0.528149
25 2 0.635547 0.511237 0.539629
23 1 0.5665 0.564721 0.576877
41 4 0.138946 0.90335 0.53101
39 4 0.0752203 0.707088 0.524293
42 2 0.403891 0.482192 0.525428
27 2 0.633198 0.539697 0.745665
28 2 0.509312 0.621477 0.735444
24 1 0.553248 0.542304 0.710651
6 2 0.252443 0.249716 0.865621
13 1 0.464121 0.466692 0.886045
3 2 0.449769 0.289013 0.899453
20 2 0.405732 0.546013 0.888763
2 1 0.258703 0.340002 0.890261
16 4 0.653787 0.325066 0.936117
1 1 0.391574 0.357919 0.920796
5 2 0.196417 0.37808 0.955976
9 3 0.650681 0.41581 0.975848
ITEM: TIMESTEP
1500
ITEM: NUMBER OF ATOMS
44
ITEM: BOX BOUNDS pp pp pp
-5.79054 5.79054
-5.79054 5.79054
-5.79054 5.79054
ITEM: ATOMS id type xs ys zs
18 4 0.744021 0.343385 0.117686
39 4 0.0795821 0.741684 0.499818
38 4 0.485372 0.792705 0.473484
10 3 0.654973 0.633534 0.0928011
11 3 0.711778 0.43232 0.0762051
12 3 0.722082 0.540886 0.135016
43 2 0.507602 0.581713 0.307339
17 4 0.661152 0.716515 0.136148
40 4 0.368668 0.965679 0.459379
36 1 0.440036 0.517143 0.352499
19 4 0.785541 0.548298 0.210211
44 2 0.357228 0.533482 0.299244
34 3 0.210652 0.865032 0.461122
32 3 0.167727 0.758989 0.469568
33 3 0.329866 0.877281 0.476958
35 1 0.416747 0.557856 0.475086
41 4 0.158315 0.93565 0.459815
37 4 0.20299 0.580597 0.493401
29 3 0.351872 0.666819 0.477033
26 2 0.609991 0.607284 0.497874
31 3 0.395455 0.778645 0.48553
30 3 0.237296 0.66346 0.472707
15 4 0.505385 0.679719 0.982548
7 3 0.56994 0.50542 0.942227
9 3 0.646715 0.411679 0.981101
5 2 0.22545 0.42809 0.898611
14 1 0.526204 0.460483 0.72024
16 4 0.640656 0.328452 0.939022
2 1 0.273956 0.364557 0.847572
4 2 0.400077 0.329343 0.978915
22 2 0.608881 0.414329 0.715225
21 2 0.45843 0.406059 0.680523
6 2 0.23998 0.278776 0.839978
20 2 0.408589 0.539357 0.851203
24 1 0.543452 0.580959 0.66664
1 1 0.40194 0.360384 0.89093
25 2 0.576746 0.472329 0.508704
23 1 0.542609 0.559177 0.532802
3 2 0.435969 0.294013 0.846931
13 1 0.482788 0.468038 0.845914
42 2 0.371032 0.481646 0.512718
27 2 0.608953 0.626051 0.714561
28 2 0.473692 0.633952 0.690579
8 3 0.577433 0.616848 1.00334
ITEM: TIMESTEP
1600
ITEM: NUMBER OF ATOMS
44
ITEM: BOX BOUNDS pp pp pp
-5.79054 5.79054
-5.79054 5.79054
-5.79054 5.79054
ITEM: ATOMS id type xs ys zs
18 4 0.73065 0.378406 0.159533
39 4 0.0752579 0.781866 0.407386
38 4 0.490986 0.781742 0.449878
10 3 0.679565 0.63891 0.0414818
11 3 0.706852 0.45093 0.085844
12 3 0.727303 0.563261 0.115966
43 2 0.49699 0.53982 0.251578
17 4 0.690584 0.731893 0.0573362
40 4 0.379611 0.970767 0.41653
36 1 0.427999 0.507777 0.312512
19 4 0.771493 0.588322 0.196506
44 2 0.344977 0.507957 0.261319
34 3 0.232813 0.882201 0.418936
32 3 0.170023 0.782392 0.431795
33 3 0.346121 0.883938 0.413566
35 1 0.411455 0.561734 0.428233
41 4 0.18189 0.954529 0.417357
37 4 0.171967 0.602199 0.420717
29 3 0.346643 0.678826 0.431432
26 2 0.585505 0.648065 0.478094
31 3 0.404677 0.781853 0.430096
30 3 0.22365 0.679356 0.437008
25 2 0.583504 0.491226 0.487847
42 2 0.3727 0.491546 0.48006
15 4 0.561819 0.692801 0.915547
7 3 0.575611 0.507206 0.919968
9 3 0.637 0.412837 0.983886
5 2 0.215104 0.305003 0.812586
14 1 0.499494 0.466942 0.699166
16 4 0.654616 0.324394 0.953446
2 1 0.288082 0.357009 0.778047
4 2 0.300333 0.458074 0.927702
22 2 0.582457 0.424235 0.692853
21 2 0.43951 0.409185 0.642516
6 2 0.330033 0.298531 0.719205
20 2 0.416494 0.573937 0.837982
24 1 0.503517 0.577789 0.63598
1 1 0.369099 0.413987 0.875118
8 3 0.598189 0.614882 0.957243
23 1 0.533591 0.573114 0.499615
3 2 0.4033 0.349933 0.923126
13 1 0.466043 0.491236 0.830134
28 2 0.428516 0.629997 0.641771
27 2 0.568601 0.635894 0.671504
ITEM: TIMESTEP
1700
ITEM: NUMBER OF ATOMS
44
ITEM: BOX BOUNDS pp pp pp
-5.79054 5.79054
-5.79054 5.79054
-5.79054 5.79054
ITEM: ATOMS id type xs ys zs
18 4 0.75955 0.417327 0.0926405
39 4 0.0897646 0.800898 0.421893
38 4 0.508512 0.773961 0.359099
42 2 0.367451 0.489495 0.423712
11 3 0.707654 0.474634 0.0301887
12 3 0.753762 0.57961 0.022056
43 2 0.511253 0.597504 0.241577
23 1 0.520314 0.578851 0.481179
40 4 0.394579 0.963054 0.318235
36 1 0.464173 0.530228 0.266168
19 4 0.846164 0.588545 0.0512033
44 2 0.386217 0.541451 0.222205
34 3 0.256917 0.879366 0.371925
32 3 0.184127 0.786693 0.396424
33 3 0.368685 0.881408 0.358228
35 1 0.424009 0.561275 0.394946
41 4 0.206638 0.957721 0.353738
37 4 0.197135 0.609923 0.466535
29 3 0.355784 0.678039 0.394615
26 2 0.596429 0.626458 0.45127
31 3 0.423097 0.778321 0.378664
30 3 0.235021 0.682458 0.426893
25 2 0.568351 0.50082 0.481601
15 4 0.508703 0.710676 0.890106
7 3 0.534279 0.516066 0.909094
9 3 0.598719 0.438802 0.975846
5 2 0.215846 0.491587 0.776561
14 1 0.482903 0.487733 0.689087
16 4 0.577047 0.343391 0.963813
2 1 0.243088 0.398025 0.771046
4 2 0.344376 0.349399 0.925504
22 2 0.558578 0.443068 0.67971
21 2 0.40895 0.447353 0.634181
6 2 0.173271 0.354304 0.815552
20 2 0.377247 0.567127 0.82278
24 1 0.497321 0.604819 0.615776
1 1 0.358587 0.379157 0.833023
8 3 0.56418 0.638191 0.92968
27 2 0.577097 0.646506 0.640467
3 2 0.402896 0.304685 0.801293
13 1 0.437682 0.491646 0.816812
28 2 0.416568 0.65319 0.622174
10 3 0.67362 0.661984 0.98009
17 4 0.703663 0.750391 0.969455
ITEM: TIMESTEP
1800
ITEM: NUMBER OF ATOMS
44
ITEM: BOX BOUNDS pp pp pp
-5.79054 5.79054
-5.79054 5.79054
-5.79054 5.79054
ITEM: ATOMS id type xs ys zs
18 4 0.74017 0.405339 -0.0115718
39 4 0.123264 0.789937 0.430185
38 4 0.513205 0.788859 0.284589
42 2 0.393015 0.503437 0.392533
25 2 0.594718 0.487941 0.458825
12 3 0.708132 0.578523 -0.0039462
43 2 0.495768 0.445443 0.236529
23 1 0.548996 0.568301 0.456649
40 4 0.391825 0.96944 0.272975
36 1 0.510369 0.528905 0.254311
19 4 0.783571 0.596513 0.0599679
44 2 0.463078 0.584385 0.197073
34 3 0.253089 0.882168 0.329783
32 3 0.213534 0.794254 0.39499
33 3 0.361883 0.882598 0.296595
35 1 0.457624 0.573488 0.369549
41 4 0.201636 0.958168 0.30582
37 4 0.25047 0.622184 0.466699
29 3 0.382028 0.680084 0.348496
26 2 0.60944 0.644682 0.442135
31 3 0.424392 0.785353 0.301222
30 3 0.281634 0.692171 0.415162
15 4 0.490954 0.73912 0.860517
7 3 0.514168 0.55269 0.840527
9 3 0.586077 0.457409 0.874944
5 2 0.182726 0.490968 0.833809
14 1 0.426909 0.498332 0.641939
16 4 0.568134 0.36244 0.847218
2 1 0.22167 0.402896 0.822331
4 2 0.347738 0.470342 0.938897
22 2 0.462622 0.414021 0.64352
21 2 0.34891 0.479383 0.577905
6 2 0.194224 0.348749 0.893166
20 2 0.347754 0.601366 0.772751
24 1 0.50626 0.588588 0.579504
1 1 0.342922 0.431188 0.849612
8 3 0.55324 0.666213 0.871661
27 2 0.581743 0.595804 0.643827
3 2 0.397877 0.353515 0.860134
13 1 0.40356 0.52563 0.770106
28 2 0.479352 0.673623 0.585855
10 3 0.642028 0.675256 0.956528
17 4 0.646903 0.766223 0.975459
11 3 0.680069 0.472022 0.953632
ITEM: TIMESTEP
1900
ITEM: NUMBER OF ATOMS
44
ITEM: BOX BOUNDS pp pp pp
-5.79054 5.79054
-5.79054 5.79054
-5.79054 5.79054
ITEM: ATOMS id type xs ys zs
30 3 0.276994 0.700227 0.371713
39 4 0.132312 0.803577 0.373313
38 4 0.514131 0.737946 0.215536
42 2 0.393911 0.491054 0.38751
25 2 0.59684 0.49069 0.447635
31 3 0.436579 0.759274 0.268383
43 2 0.595648 0.462058 0.258445
23 1 0.545721 0.572301 0.43435
40 4 0.427196 0.928896 0.200456
36 1 0.512637 0.488247 0.237356
19 4 0.772293 0.64555 0.00488802
44 2 0.465351 0.404326 0.224482
34 3 0.29111 0.902817 0.329048
32 3 0.225936 0.800189 0.348748
33 3 0.387677 0.87441 0.259832
35 1 0.449577 0.553259 0.344302
41 4 0.242753 0.98243 0.338692