ITEM: TIMESTEP
0
ITEM: NUMBER OF ATOMS
94
ITEM: BOX BOUNDS pp pp pp
-5.79054 5.79054
-5.79054 5.79054
-5.79054 5.79054
ITEM: ATOMS id type xs ys zs
1 1 0.630632 0.144288 0.404118
2 1 0.677714 0.246607 0.474829
3 2 0.537034 0.152719 0.395961
4 2 0.647093 0.0651277 0.452648
5 2 0.652867 0.329073 0.436615
7 3 0.662983 0.0167985 0.227475
8 3 0.753239 0.954531 0.176917
9 3 0.551155 0.97143 0.223301
10 3 0.732368 0.848592 0.123789
11 3 0.530204 0.865518 0.170067
12 3 0.620778 0.80399 0.120275
13 1 0.687622 0.134046 0.283384
14 1 0.651532 0.236342 0.204762
15 4 0.84052 0.989097 0.177872
16 4 0.479411 0.0186089 0.261062
17 4 0.803162 0.800956 0.0847002
18 4 0.442919 0.831027 0.167047
19 4 0.60434 0.721512 0.0784253
20 2 0.780934 0.14025 0.296591
21 2 0.68471 0.316728 0.241315
22 2 0.557593 0.243823 0.202595
23 1 0.678066 0.336686 0.0111878
24 1 0.6976 0.224203 0.0802258
25 2 0.731559 0.405572 0.0472443
26 2 0.588217 0.363428 0.0220445
27 2 0.65364 0.152666 0.0370409
28 2 0.789673 0.203991 0.0832738
55 3 0.907329 0.952516 0.449007
56 3 0.811327 0.889536 0.484516
60 4 0.0405742 0.0712814 0.498292
62 4 0.936399 0.947614 0.359939
63 4 0.764781 0.835953 0.422981
73 3 0.233102 0.314653 0.0183181
75 3 0.139182 0.384927 0.0468261
77 3 0.142102 0.50321 0.0246758
79 1 0.225677 0.184822 0.0419861
80 1 0.344415 0.125268 0.0527723
82 4 0.0626045 0.347308 0.0860308
84 4 0.0682838 0.556872 0.0467453
86 2 0.183026 0.174387 0.125605
87 2 0.394067 0.164076 0.122758
88 2 0.334276 0.0333516 0.071374
89 1 0.700011 0.946916 0.0850749
90 1 0.58189 0.00616018 0.0743447
91 2 0.752414 0.965245 0.00883082
92 2 0.689476 0.853365 0.0919577
93 2 0.59331 0.0994758 0.0662051
94 2 0.529596 0.98947 0.151062
6 2 0.642049 0.24392 0.562001
29 3 0.6588 0.429725 0.815612
30 3 0.567242 0.419714 0.737612
31 3 0.707147 0.538467 0.835788
32 3 0.524908 0.516772 0.680436
33 3 0.664679 0.635625 0.778907
34 3 0.573529 0.624848 0.701164
35 1 0.702494 0.323346 0.880251
36 1 0.831849 0.297917 0.856005
37 4 0.527739 0.336066 0.721713
38 4 0.777918 0.548074 0.896625
39 4 0.453307 0.508263 0.620291
40 4 0.70265 0.719831 0.795603
41 4 0.540039 0.700588 0.656906
42 2 0.653198 0.248657 0.850116
43 2 0.885508 0.369211 0.886742
44 2 0.857723 0.221514 0.904368
45 1 0.980215 0.233846 0.704158
46 1 0.855546 0.276507 0.726248
47 2 0.00303209 0.250392 0.614145
48 2 0.0384321 0.286264 0.756485
49 2 0.793905 0.213863 0.692287
50 2 0.842098 0.357085 0.678961
51 3 0.930493 0.0284266 0.642754
52 3 0.833543 0.965358 0.677459
53 3 0.966178 0.0221308 0.527544
54 3 0.774103 0.896558 0.598644
57 1 0.995853 0.102924 0.730091
58 1 0.125012 0.0663023 0.736125
59 4 0.803548 0.96998 0.766304
61 4 0.698389 0.848441 0.626084
64 2 0.958638 0.0848807 0.814616
65 2 0.165533 0.0789969 0.651951
66 2 0.12887 0.973654 0.753991
67 1 0.149688 0.122501 0.951397
68 1 0.19933 0.130053 0.827374
69 2 0.0640172 0.161688 0.954055
70 2 0.139382 0.0319268 0.975764
71 2 0.285663 0.091998 0.826137
72 2 0.210193 0.220165 0.802085
74 3 0.330058 0.364918 0.966358
76 3 0.333415 0.483389 0.945237
78 3 0.239406 0.552595 0.974165
81 4 0.403536 0.312197 0.941192
83 4 0.409346 0.521841 0.905607
85 4 0.241889 0.644864 0.956937
ITEM: TIMESTEP
100
ITEM: NUMBER OF ATOMS
94
ITEM: BOX BOUNDS pp pp pp
-5.79054 5.79054
-5.79054 5.79054
-5.79054 5.79054
ITEM: ATOMS id type xs ys zs
1 1 0.650221 0.151895 0.452251
86 2 0.342444 0.106726 0.0982031
3 2 0.561239 0.139467 0.414456
84 4 0.0454656 0.447634 0.134582
5 2 0.627475 0.317 0.382657
7 3 0.674401 0.955583 0.386078
8 3 0.753853 0.860882 0.341736
9 3 0.596298 0.931049 0.473409
10 3 0.731704 0.759019 0.363215
69 2 0.160403 0.143064 0.0407891
12 3 0.667653 0.732622 0.483008
13 1 0.70442 0.0746487 0.35877
14 1 0.679424 0.116126 0.237269
15 4 0.833123 0.896021 0.316476
82 4 0.131851 0.287287 0.160072
17 4 0.789339 0.687456 0.361403
16 4 0.54646 0.98257 0.543582
19 4 0.656339 0.639062 0.500147
20 2 0.79787 0.0832828 0.358098
21 2 0.593929 0.158583 0.255449
22 2 0.654663 0.0421104 0.180216
23 1 0.679083 0.332847 0.100158
24 1 0.740911 0.227181 0.175992
25 2 0.707441 0.417176 0.122057
26 2 0.586858 0.350083 0.123018
27 2 0.816215 0.191883 0.137451
28 2 0.781005 0.286954 0.242819
75 3 0.182249 0.339351 0.102322
77 3 0.128234 0.438483 0.0928298
87 2 0.528833 0.0902545 0.0343171
2 1 0.675876 0.293113 0.460843
79 1 0.344164 0.173872 0.0295601
73 3 0.293265 0.303282 0.0486557
6 2 0.649233 0.340689 0.541887
29 3 0.656841 0.425301 0.892104
30 3 0.57052 0.392882 0.812173
31 3 0.710353 0.530612 0.89826
32 3 0.533551 0.478219 0.73825
33 3 0.674999 0.61208 0.828251
34 3 0.592575 0.581778 0.744268
35 1 0.70632 0.328382 0.966899
36 1 0.836029 0.318508 0.928196
37 4 0.539307 0.303889 0.806181
38 4 0.787517 0.549551 0.947411
39 4 0.472211 0.457317 0.670364
40 4 0.723226 0.688984 0.813334
41 4 0.560261 0.649923 0.682894
42 2 0.663911 0.252013 0.934248
43 2 0.886828 0.386005 0.970417
44 2 0.863962 0.238595 0.974581
45 1 0.941013 0.262251 0.723065
46 1 0.844243 0.315259 0.794443
47 2 0.909265 0.263582 0.629256
48 2 0.0203306 0.321149 0.734037
49 2 0.768786 0.271205 0.763376
50 2 0.827248 0.40184 0.761522
51 3 0.940705 0.0319119 0.688872
52 3 0.844111 0.980682 0.732964
53 3 0.000108603 0.963709 0.609558
54 3 0.81334 0.870192 0.696947
57 1 0.979397 0.139933 0.763814
58 1 0.108848 0.131074 0.782035
59 4 0.770969 0.0337359 0.764418
61 4 0.725993 0.84048 0.713472
64 2 0.938935 0.134579 0.846892
65 2 0.156613 0.104185 0.70869
66 2 0.0893697 0.0480861 0.820449
67 1 0.226222 0.119941 0.977683
68 1 0.172016 0.191152 0.876032
91 2 0.400409 0.0550938 0.719128
85 4 0.117038 0.575849 0.985289
71 2 0.258643 0.208753 0.829275
72 2 0.131644 0.268326 0.913222
74 3 0.35412 0.383259 0.979051
76 3 0.301187 0.489122 0.946607
78 3 0.1847 0.513275 1.01506
81 4 0.42848 0.367908 0.918223
83 4 0.341535 0.524583 0.875259
56 3 0.89772 0.788477 0.658988
60 4 0.0713131 -0.000574717 0.563
92 2 0.30217 0.919437 0.765829
88 2 0.48947 0.149996 0.903696
89 1 0.357706 -0.00264665 0.791032
55 3 1.00147 0.842444 0.613262
4 2 0.642278 0.117612 0.551326
63 4 0.876742 0.69568 0.651564
70 2 0.213205 0.0320275 0.971617
90 1 0.455641 0.978524 0.892243
94 2 0.426891 0.915154 0.957539
80 1 0.463177 0.0896582 0.96891
62 4 0.074768 0.800976 0.568391
93 2 0.548114 0.967214 0.872446
11 3 0.600265 0.81891 0.532174
18 4 0.534465 0.810688 0.604288
ITEM: TIMESTEP
200
ITEM: NUMBER OF ATOMS
94
ITEM: BOX BOUNDS pp pp pp
-5.79054 5.79054
-5.79054 5.79054
-5.79054 5.79054
ITEM: ATOMS id type xs ys zs
74 3 0.324315 0.390781 0.0198045
86 2 0.319288 0.119188 0.0817285
40 4 0.555841 0.662267 0.0672452
84 4 0.172474 0.386025 0.313237
5 2 0.595688 0.350343 0.422624
7 3 0.711186 0.977388 0.477652
8 3 0.793502 0.89923 0.474506
76 3 0.269399 0.478165 0.0750807
10 3 0.757819 0.776175 0.486298
69 2 0.115336 0.170157 0.0486411
85 4 0.210993 0.55446 0.220022
13 1 0.736078 0.100222 0.426433
14 1 0.687424 0.0852017 0.297316
15 4 0.873695 0.897999 0.419516
82 4 0.232471 0.198761 0.228298
17 4 0.826159 0.723234 0.47641
73 3 0.322625 0.285612 0.0717242
35 1 0.727428 0.25918 0.0206752
20 2 0.816053 0.117784 0.415929
21 2 0.633142 0.148335 0.265404
22 2 0.664323 0.995165 0.289056
23 1 0.774477 0.229837 0.139373
24 1 0.777579 0.102836 0.197813
25 2 0.867286 0.244382 0.153881
26 2 0.730794 0.286412 0.19305
27 2 0.758242 0.0381254 0.134691
28 2 0.864183 0.0857225 0.240441
75 3 0.270242 0.276412 0.183396
77 3 0.22753 0.369465 0.240604
78 3 0.247761 0.470521 0.186156
2 1 0.684591 0.317933 0.447621
38 4 0.647676 0.492652 0.156472
6 2 0.717399 0.385388 0.513226
31 3 0.626703 0.488838 0.0652816
33 3 0.574745 0.587407 0.0168205
79 1 0.317867 0.178368 0.00890481
83 4 0.226201 0.53488 0.0308295
87 2 0.458532 0.188472 0.906104
29 3 0.654179 0.384729 0.996788
30 3 0.613798 0.389531 0.882344
12 3 0.645008 0.75612 0.518715
32 3 0.575261 0.487728 0.827947
90 1 0.469545 0.0184819 0.8633
34 3 0.539119 0.57728 0.9007
93 2 0.550098 0.0440358 0.836599
36 1 0.844575 0.255664 0.950903
37 4 0.612603 0.31368 0.830827
19 4 0.641879 0.663522 0.535938
39 4 0.56698 0.493973 0.734184
70 2 0.195098 0.0751245 0.950859
41 4 0.516918 0.657623 0.848813
3 2 0.614868 0.169312 0.556165
43 2 0.892852 0.334263 0.973967
62 4 0.0643161 0.710033 0.725751
45 1 0.901999 0.190058 0.749566
46 1 0.809122 0.24279 0.825328
47 2 0.856378 0.14611 0.693527
48 2 0.94181 0.258122 0.692935
49 2 0.73255 0.185103 0.831554
50 2 0.770053 0.317782 0.789225
51 3 0.95205 0.982895 0.753763
52 3 0.836962 0.954173 0.778591
53 3 0.0254723 0.892493 0.728667
54 3 0.802203 0.841171 0.772581
57 1 0.994273 0.111157 0.799214
58 1 0.110715 0.16663 0.762524
59 4 0.779046 0.0113039 0.825096
61 4 0.717481 0.813263 0.792904
64 2 0.991721 0.0989512 0.889202
65 2 0.104743 0.214727 0.686669
66 2 0.168906 0.101952 0.729618
67 1 0.187599 0.160784 0.987885
68 1 0.153022 0.232925 0.868744
91 2 0.404919 0.952754 0.661835
11 3 0.549708 0.839797 0.543907
71 2 0.227511 0.278785 0.820574
72 2 0.110792 0.310724 0.890853
94 2 0.473717 0.962944 0.939991
80 1 0.38976 0.133753 0.893723
18 4 0.464498 0.814882 0.577649
81 4 0.352448 0.403657 0.941198
63 4 0.841645 0.662828 0.743249
56 3 0.875732 0.75003 0.74788
60 4 0.116406 0.901851 0.716474
92 2 0.358366 0.874057 0.808482
88 2 0.351144 0.165299 0.820906
89 1 0.415106 0.939208 0.764506
55 3 0.995283 0.777296 0.734443
4 2 0.739773 0.218453 0.570836
1 1 0.689004 0.195591 0.501129
44 2 0.890477 0.175307 0.987109
42 2 0.657359 0.200171 1.00057
16 4 0.52656 0.0199338 0.537555
9 3 0.584962 0.953568 0.526137
ITEM: TIMESTEP
300
ITEM: NUMBER OF ATOMS
94
ITEM: BOX BOUNDS pp pp pp
-5.79054 5.79054
-5.79054 5.79054
-5.79054 5.79054
ITEM: ATOMS id type xs ys zs
74 3 0.25775 0.372909 0.141343
86 2 0.291156 0.10311 0.0525596
40 4 0.593807 0.589667 0.262347
84 4 0.483065 0.272 0.374816
5 2 0.821488 0.333385 0.482465
42 2 0.628315 0.222804 0.0649305
81 4 0.215987 0.413102 0.0764838
76 3 0.29763 0.44513 0.2255
83 4 0.271042 0.524695 0.241363
31 3 0.65548 0.458463 0.164768
85 4 0.410987 0.478545 0.361947
13 1 0.682987 0.102423 0.439831
14 1 0.685706 0.0561263 0.314247
29 3 0.660065 0.397644 0.0658983
82 4 0.419741 0.145726 0.218313
33 3 0.584537 0.550846 0.177394
73 3 0.295488 0.253928 0.137468
35 1 0.709311 0.282345 0.0767144
20 2 0.762741 0.12369 0.451157
21 2 0.604036 0.0612299 0.263722
22 2 0.688289 0.9672 0.300428
23 1 0.738804 0.236433 0.205839
24 1 0.777421 0.109768 0.243563
25 2 0.818112 0.282895 0.245199
26 2 0.674958 0.262989 0.261892
27 2 0.783435 0.078909 0.161159
28 2 0.864558 0.0891631 0.276548
75 3 0.377884 0.225791 0.2243
77 3 0.415066 0.293862 0.315773
78 3 0.382487 0.407604 0.308275
6 2 0.681917 0.424308 0.482252
38 4 0.72324 0.446004 0.227409
34 3 0.507479 0.582701 0.0919621
94 2 0.517034 0.0468104 0.0381856
79 1 0.286582 0.186113 0.0215013
41 4 0.439316 0.651608 0.107349
15 4 0.863592 0.985478 0.496657
7 3 0.669274 0.98979 0.496606
2 1 0.726776 0.337997 0.492985
44 2 0.881633 0.193557 0.0343966
16 4 0.494507 0.982091 0.492613
19 4 0.673261 0.677585 0.597675
9 3 0.574461 0.937955 0.516757
30 3 0.594879 0.433087 0.971888
12 3 0.679714 0.769556 0.576227
32 3 0.521265 0.528434 0.989561
90 1 0.482579 0.088418 0.95822
17 4 0.856283 0.767016 0.567933
93 2 0.549621 0.127716 0.91056
36 1 0.806255 0.241857 0.989939
37 4 0.589195 0.383547 0.89535
8 3 0.782577 0.941258 0.515426
39 4 0.457113 0.547849 0.923882
70 2 0.139361 0.0932418 1.00167
4 2 0.670965 0.216224 0.598168
1 1 0.65547 0.228302 0.504947
43 2 0.844234 0.321355 0.954872
62 4 0.044871 0.633223 0.770188
45 1 0.880832 0.139542 0.782651
46 1 0.780982 0.157731 0.879908
47 2 0.849765 0.121624 0.699042
48 2 0.927185 0.225155 0.776995
49 2 0.735977 0.083843 0.906672
50 2 0.718113 0.203377 0.826651
51 3 0.941375 0.912079 0.81041
52 3 0.823214 0.879313 0.837058
53 3 0.00809414 0.819899 0.773785
54 3 0.796699 0.760884 0.858195
57 1 0.978395 0.0408602 0.806557
58 1 0.0903041 0.0791724 0.749465
59 4 0.735748 0.928325 0.852907
61 4 0.716036 0.719189 0.870867
64 2 0.990453 0.0698894 0.893419
65 2 0.0861701 0.168139 0.711456
66 2 0.110726 0.0330132 0.676957
67 1 0.17111 0.157588 0.938601
68 1 0.202944 0.11532 0.813484
91 2 0.536097 0.938374 0.828276
11 3 0.571569 0.831278 0.565898
71 2 0.24194 0.0303128 0.837747
72 2 0.25662 0.18549 0.768533
10 3 0.785919 0.826105 0.549439
80 1 0.404098 0.190211 0.942777
18 4 0.493479 0.779174 0.581312
69 2 0.11255 0.226215 0.92804
63 4 0.856994 0.586484 0.851931
56 3 0.879189 0.676518 0.845116
60 4 0.0941992 0.826598 0.761102
92 2 0.423063 0.0277645 0.801935
88 2 0.398864 0.215003 0.856567
89 1 0.455477 0.971917 0.873933
55 3 0.980411 0.704784 0.785361
3 2 0.565573 0.220853 0.518409
87 2 0.44897 0.267174 0.977773
ITEM: TIMESTEP
400
ITEM: NUMBER OF ATOMS
94
ITEM: BOX BOUNDS pp pp pp
-5.79054 5.79054
-5.79054 5.79054
-5.79054 5.79054
ITEM: ATOMS id type xs ys zs
74 3 0.221608 0.231755 0.210924
86 2 0.330311 0.0488868 0.058632
40 4 0.7139 0.703405 0.275409
84 4 0.497915 0.354493 0.332533
71 2 0.045518 0.0724672 0.0624344
42 2 0.667215 0.258645 0.130144
81 4 0.144356 0.197297 0.184469
76 3 0.219678 0.330454 0.286985
83 4 0.140248 0.364368 0.316848
31 3 0.752697 0.530432 0.225601
85 4 0.325072 0.455715 0.372896
13 1 0.751292 0.0645785 0.478272
14 1 0.71969 0.0613714 0.351606
29 3 0.708857 0.436369 0.153101
82 4 0.510232 0.241144 0.173079
33 3 0.681182 0.628451 0.227433
73 3 0.323583 0.207166 0.162371
35 1 0.750896 0.313737 0.138363
20 2 0.843046 0.0664421 0.481735
21 2 0.639316 0.115573 0.35282
22 2 0.691423 0.976039 0.323945
23 1 0.826319 0.240665 0.237025
24 1 0.795447 0.108387 0.24951
25 2 0.928004 0.249377 0.217318
26 2 0.802565 0.266765 0.32808
27 2 0.76602 0.080835 0.169357
28 2 0.875637 0.0602545 0.262042
75 3 0.424508 0.256308 0.20272
77 3 0.414508 0.31733 0.301068
78 3 0.322453 0.374541 0.327929
49 2 0.852978 0.156203 0.0415653
38 4 0.827241 0.528672 0.282244
34 3 0.568824 0.615869 0.176126
44 2 0.893243 0.317529 0.00817552
79 1 0.308699 0.141607 0.0424661
41 4 0.502464 0.683784 0.195273
30 3 0.606489 0.443328 0.0846238
32 3 0.538559 0.536942 0.0939881
36 1 0.801455 0.301221 0.0105438
39 4 0.462806 0.562692 0.0378012
91 2 0.467894 0.900848 0.00540763
50 2 0.717149 0.127019 0.02771
37 4 0.588363 0.375647 0.0225431
19 4 0.662374 0.678963 0.726037
9 3 0.608078 0.917442 0.55443
15 4 0.892165 0.903152 0.567208
12 3 0.665996 0.757059 0.668526
7 3 0.722221 0.960326 0.543107
90 1 0.499988 0.0678031 0.933191
17 4 0.828094 0.717606 0.671826
93 2 0.544131 0.081348 0.850897
55 3 0.991214 0.689258 0.860463
3 2 0.586033 0.140494 0.533801
8 3 0.805853 0.880383 0.569807
6 2 0.621227 0.338296 0.592478
87 2 0.458021 0.241673 0.995379
4 2 0.689606 0.120749 0.639588
89 1 0.453607 0.947856 0.926708
43 2 0.748914 0.347185 0.94172
62 4 0.0661682 0.627287 0.844134
45 1 0.813224 0.104725 0.874193
46 1 0.776549 0.174399 0.984347
47 2 0.740967 0.0537587 0.855258
48 2 0.817846 0.157962 0.797706
88 2 0.37674 0.216904 0.873598
2 1 0.686531 0.287326 0.545222
51 3 0.885106 0.877829 0.880561
52 3 0.783273 0.812991 0.909667
53 3 0.990565 0.809512 0.862206
54 3 0.792891 0.69248 0.91947
57 1 0.902608 0.0105712 0.888186
58 1 0.0181019 0.0705081 0.881827
59 4 0.714326 0.859162 0.952936
61 4 0.731827 0.631711 0.947479
64 2 0.89495 0.996472 0.976183
65 2 0.996536 0.161207 0.885069
66 2 0.0614493 0.0544171 0.807355
67 1 0.198204 0.150758 0.958795
68 1 0.0989881 0.0612644 0.984116
5 2 0.774999 0.313493 0.553163
11 3 0.583711 0.818467 0.613779
1 1 0.676829 0.152672 0.549501
72 2 0.131305 0.966498 0.981628
10 3 0.778646 0.785462 0.63985
80 1 0.415341 0.169255 0.951288
18 4 0.500331 0.800039 0.643457
69 2 0.222703 0.128276 0.878022
63 4 0.88612 0.542756 0.881055
56 3 0.890362 0.635374 0.881953
60 4 0.0686771 0.846466 0.836364
92 2 0.499734 0.889135 0.86285
94 2 0.553728 0.0831439 0.996176
70 2 0.157015 0.233292 0.964881
16 4 0.531351 0.973172 0.529218
ITEM: TIMESTEP
500
ITEM: NUMBER OF ATOMS
94
ITEM: BOX BOUNDS pp pp pp
-5.79054 5.79054
-5.79054 5.79054
-5.79054 5.79054
ITEM: ATOMS id type xs ys zs
74 3 0.206774 0.180622 0.272465
86 2 0.300918 0.0110884 0.137081
40 4 0.888297 0.705558 0.249005
84 4 0.422229 0.406483 0.306959
71 2 0.0851692 -0.0125959 0.111292
42 2 0.66566 0.302773 0.270909
81 4 0.13926 0.117736 0.271429
76 3 0.197949 0.266198 0.356912
83 4 0.13232 0.264671 0.429152
31 3 0.84092 0.528331 0.216614
85 4 0.271485 0.40901 0.431627
37 4 0.562266 0.436647 0.195164
14 1 0.768387 0.0971887 0.423112
29 3 0.744326 0.452264 0.203106
82 4 0.428753 0.291875 0.132607
33 3 0.817219 0.644196 0.238384
73 3 0.292059 0.18688 0.186164
35 1 0.754251 0.319261 0.221162
72 2 0.157118 0.913516 -0.0133286
21 2 0.683027 0.107324 0.374132
22 2 0.8104 0.0289374 0.372282
23 1 0.852123 0.275372 0.305268
24 1 0.843108 0.201771 0.416565
25 2 0.922316 0.240648 0.243815
26 2 0.895585 0.361077 0.341825
27 2 0.92922 0.192597 0.458087
28 2 0.788806 0.268836 0.465007
75 3 0.349803 0.289462 0.181224
77 3 0.354355 0.344463 0.283335
78 3 0.273435 0.345496 0.363455
49 2 0.782585 0.0769075 0.175253
38 4 0.927764 0.500481 0.199252
34 3 0.706206 0.675927 0.259794
68 1 0.116744 -0.000628989 0.0222669
79 1 0.30596 0.0995571 0.0949412
41 4 0.693201 0.748598 0.316113
30 3 0.632007 0.486863 0.211754
32 3 0.619726 0.603502 0.233044
36 1 0.763337 0.260816 0.0884328
39 4 0.53492 0.63952 0.264711
64 2 0.903495 0.96978 0.0823005
46 1 0.750395 0.108489 0.0872647
87 2 0.484074 0.101801 0.106499
44 2 0.851326 0.282347 0.0717734
50 2 0.670615 0.0640004 0.0794676
94 2 0.413431 0.895077 0.0510092
43 2 0.710782 0.308452 0.0204396
59 4 0.719499 0.823008 0.0444002
80 1 0.427508 0.0917449 0.0363042
52 3 0.792354 0.776638 0.0126179
67 1 0.197613 0.107432 0.00601873
70 2 0.155787 0.191141 0.0191946
19 4 0.676419 0.626263 0.650033
9 3 0.610589 0.904273 0.596702
15 4 0.903077 0.877012 0.562828
12 3 0.688644 0.716436 0.626995
7 3 0.727362 0.94176 0.580891
90 1 0.429068 0.960598 0.987967
17 4 0.868024 0.714768 0.651065
93 2 0.510783 0.929676 0.942862
55 3 0.969686 0.646941 0.899144
3 2 0.601547 0.198009 0.595912
8 3 0.812059 0.85879 0.571226
6 2 0.67525 0.301772 0.73448
20 2 0.848415 0.0658738 0.585969
4 2 0.6596 0.116691 0.709538
89 1 0.351249 0.932792 0.876562
92 2 0.39949 0.920603 0.794712
62 4 0.0419564 0.594961 0.865448
45 1 0.803448 0.0490772 0.972155
91 2 0.300623 0.867949 0.899638
47 2 0.750309 0.0175758 0.900548
48 2 0.833396 0.130799 0.941404
88 2 0.428359 0.159415 0.966169
2 1 0.730316 0.27376 0.663072
51 3 0.899437 0.828876 0.976526
63 4 0.837528 0.520887 0.884082
53 3 0.990604 0.762807 0.935979
54 3 0.776003 0.667245 0.974803
57 1 0.913557 0.962358 0.995957
58 1 0.0191069 0.0226073 0.944359
60 4 0.066337 0.794122 0.904392
61 4 0.690765 0.646927 0.974306
16 4 0.527019 0.951887 0.591072
65 2 0.00974673 0.114181 0.933364
66 2 0.0419428 0.989385 0.863815
69 2 0.227999 0.100813 0.92332
18 4 0.504866 0.756239 0.626895
5 2 0.812267 0.27698 0.704508
11 3 0.589186 0.788729 0.604603
1 1 0.678144 0.15989 0.62592
13 1 0.76275 0.0761079 0.553266
10 3 0.793318 0.756812 0.635973
56 3 0.860242 0.604906 0.91778
ITEM: TIMESTEP
600
ITEM: NUMBER OF ATOMS
94
ITEM: BOX BOUNDS pp pp pp
-5.79054 5.79054
-5.79054 5.79054
-5.79054 5.79054
ITEM: ATOMS id type xs ys zs
74 3 0.25553 0.137405 0.371525
86 2 0.209833 0.947755 0.241221
40 4 0.987601 0.651644 0.187349
84 4 0.306679 0.423305 0.235326
71 2 0.0682982 0.900027 0.0583839
42 2 0.758837 0.279072 0.345944
81 4 0.246848 0.0600158 0.422123
76 3 0.229714 0.237247 0.428095
65 2 0.933532 0.0883181 0.0325546
31 3 0.915425 0.485343 0.223038
85 4 0.243644 0.420701 0.431195
37 4 0.66773 0.440639 0.374508
69 2 0.195108 0.135854 0.0455886
29 3 0.827247 0.417684 0.277076
82 4 0.314462 0.256436 0.117315
33 3 0.917059 0.602664 0.227805
73 3 0.281082 0.128109 0.255295
35 1 0.850931 0.295089 0.32167
70 2 0.0928178 0.136106 0.139825
21 2 0.715695 0.145396 0.475602
22 2 0.855176 0.0684634 0.472452
23 1 0.934714 0.289073 0.429265
48 2 0.716434 0.0549241 0.063645
25 2 0.00491045 0.228105 0.421495
26 2 0.960669 0.386149 0.456053
93 2 0.418816 0.847493 0.023137
88 2 0.422639 0.0703646 0.102518
75 3 0.290696 0.240308 0.204702
77 3 0.272359 0.339055 0.268842
78 3 0.236913 0.342008 0.378233
49 2 0.788426 0.042616 0.310799
38 4 0.996598 0.448017 0.195017
34 3 0.845505 0.657391 0.299903
68 1 0.0763072 0.984045 0.0338969
79 1 0.243171 0.0206985 0.1837
41 4 0.8714 0.740619 0.327774
30 3 0.737287 0.479929 0.33858
32 3 0.748111 0.600927 0.342376
36 1 0.868574 0.1922 0.235386
39 4 0.693125 0.655331 0.393044
64 2 0.9035 0.902492 0.141728
46 1 0.771083 0.093911 0.231172
87 2 0.403185 0.945407 0.181224
44 2 0.947245 0.151619 0.253439
50 2 0.688421 0.131151 0.2464
47 2 0.692805 0.958613 0.134421
43 2 0.881791 0.248906 0.161402
59 4 0.649665 0.797506 0.0417108
80 1 0.360594 0.991271 0.111917
52 3 0.721047 0.754433 0.00893462
67 1 0.154613 0.0737802 0.0989503
57 1 0.861785 0.932552 0.0648183
45 1 0.766236 0.00930245 0.121681
58 1 0.953191 0.00337647 -0.00157528
51 3 0.828652 0.809054 0.000335607
19 4 0.692667 0.645222 0.560612
9 3 0.62776 0.929433 0.587938
15 4 0.915113 0.925607 0.596376
12 3 0.699885 0.739535 0.562846
7 3 0.738176 0.971084 0.626201
5 2 0.617968 0.110696 0.861319
17 4 0.868701 0.722123 0.567428
18 4 0.527317 0.795653 0.521098
55 3 0.91116 0.627752 0.935699
3 2 0.69974 0.26935 0.690662
8 3 0.831939 0.888467 0.5923
6 2 0.700837 0.244167 0.881192
20 2 0.837135 0.0978623 0.700445
4 2 0.588084 0.173647 0.689711
89 1 0.431164 0.974091 0.906075
92 2 0.369887 -0.00799692 0.834442
62 4 0.97991 0.567111 0.904278
72 2 0.138557 0.967816 0.966253
91 2 0.479893 0.0428574 0.934496
10 3 0.811667 0.781679 0.571651
27 2 0.958421 0.190892 0.590525
13 1 0.771333 0.0943315 0.642186
2 1 0.690139 0.165054 0.830953
1 1 0.680834 0.180369 0.708804
63 4 0.820912 0.479282 0.956673
53 3 0.919097 0.740441 0.957594
54 3 0.705229 0.634597 0.971768
56 3 0.811192 0.569969 0.96536
94 2 0.278515 0.882622 0.979624
60 4 -0.010725 0.788249 0.921565
11 3 0.621427 0.818464 0.537032
16 4 0.573987 0.99827 0.556901
90 1 0.359372 0.9182 1.0056
66 2 0.945986 0.0130768 0.910483
83 4 0.228652 0.246385 0.527896
28 2 0.850023 0.297173 0.608229
14 1 0.797623 0.131058 0.518948
24 1 0.886996 0.232238 0.54158
61 4 0.628095 0.591118 0.973423
ITEM: TIMESTEP
700
ITEM: NUMBER OF ATOMS
94
ITEM: BOX BOUNDS pp pp pp
-5.79054 5.79054
-5.79054 5.79054
-5.79054 5.79054
ITEM: ATOMS id type xs ys zs
74 3 0.244844 0.101369 0.412811
86 2 0.151721 0.955267 0.241378
40 4 0.0951737 0.496985 0.134078
84 4 0.264973 0.400051 0.284676
71 2 0.0803198 0.846939 0.102748
42 2 0.811584 0.278893 0.422387
81 4 0.258522 0.0151292 0.445757
76 3 0.294399 0.191051 0.476508
65 2 0.920603 0.0531159 0.0837929
31 3 0.00691769 0.393185 0.26117
85 4 0.357648 0.368301 0.477287
37 4 0.756786 0.461333 0.378272
69 2 0.190923 0.0855869 0.0103877
29 3 0.916504 0.384066 0.339733
82 4 0.19204 0.233405 0.179411
33 3 0.0413582 0.494393 0.211068
73 3 0.20851 0.113789 0.302421
35 1 0.889018 0.26097 0.392243
70 2 0.074137 0.115652 0.0956168
90 1 0.358652 0.894227 0.102182
58 1 0.931179 0.962725 0.0602184
54 3 0.606791 0.711268 0.0287562
48 2 0.729813 0.0612085 0.150631
53 3 0.850344 0.732444 0.0234606
60 4 0.94091 0.7391 0.0252017
93 2 0.419406 0.838273 0.137331
88 2 0.416359 0.0156369 0.229028
75 3 0.229903 0.218947 0.26092
77 3 0.261706 0.312611 0.329516
78 3 0.308604 0.296639 0.43663
49 2 0.853417 0.020436 0.38748
38 4 0.0625027 0.318214 0.249682
34 3 0.980761 0.587367 0.250274
68 1 0.0603217 0.931458 0.0556316
79 1 0.208616 0.0185482 0.204106
41 4 0.0067128 0.67262 0.221071
30 3 0.833223 0.471302 0.334772
32 3 0.862769 0.57174 0.27175
36 1 0.88776 0.183047 0.291755
39 4 0.799622 0.638675 0.265869
64 2 0.891368 0.855532 0.218216
46 1 0.807647 0.0746879 0.32116
87 2 0.335713 0.90752 0.276
44 2 0.968245 0.145992 0.267532
50 2 0.730781 0.106675 0.354445
47 2 0.678108 0.950998 0.236693
43 2 0.863398 0.232492 0.218756
59 4 0.603719 0.827798 0.149081
80 1 0.331926 0.965653 0.200925
52 3 0.66254 0.787855 0.092025
67 1 0.14134 0.0474431 0.0812769
57 1 0.848146 0.90146 0.153112
45 1 0.762365 0.994845 0.212693
51 3 0.782856 0.810639 0.0802582
94 2 0.291552 0.824226 0.0965896
61 4 0.517618 0.698551 0.0236784
22 2 0.888659 0.068437 0.580817
9 3 0.668313 0.973011 0.636802
15 4 0.913405 0.86276 0.764779
12 3 0.693706 0.76937 0.599859
7 3 0.766002 0.972073 0.706
5 2 0.692223 0.00285847 0.902324
17 4 0.852045 0.710843 0.673883
24 1 0.896236 0.242916 0.621572
55 3 0.797964 0.645465 0.945645
3 2 0.788412 0.218358 0.867269
8 3 0.821696 0.875257 0.729003
6 2 0.570227 0.0972852 0.881755
20 2 0.892578 0.0508069 0.787721
4 2 0.667797 0.200886 0.775067
89 1 0.386288 0.943559 0.985772
92 2 0.478239 0.931159 0.964314
62 4 0.850197 0.580366 0.898591
72 2 0.0800121 0.931214 0.960051
91 2 0.354589 0.881009 0.928726
10 3 0.78949 0.774669 0.662244
27 2 0.954894 0.251146 0.690708
13 1 0.8178 0.0824447 0.747481
2 1 0.659737 0.098286 0.907536
1 1 0.734634 0.157571 0.822023
63 4 0.623034 0.605551 0.888897
21 2 0.767996 0.137419 0.552084
19 4 0.662198 0.702222 0.538088
56 3 0.673653 0.655998 0.942843
14 1 0.829302 0.127945 0.624591
83 4 0.357002 0.161749 0.550946
11 3 0.638781 0.875127 0.582945
16 4 0.639398 0.0541813 0.614703
28 2 0.837472 0.316108 0.621134
66 2 0.91041 0.937668 0.968135
23 1 0.961613 0.231263 0.503382
25 2 0.00936959 0.149361 0.511381
18 4 0.554489 0.893465 0.540055
26 2 0.0433894 0.295723 0.502005
ITEM: TIMESTEP
800
ITEM: NUMBER OF ATOMS
94
ITEM: BOX BOUNDS pp pp pp
-5.79054 5.79054
-5.79054 5.79054
-5.79054 5.79054
ITEM: ATOMS id type xs ys zs
74 3 0.233461 0.10184 0.472702
86 2 0.140735 0.9355 0.326865
40 4 0.170702 0.403072 0.150945
84 4 0.448404 0.328269 0.369832
71 2 0.0557728 0.89271 0.157544
42 2 0.856277 0.313736 0.480907
81 4 0.179086 0.0295111 0.497741
66 2 0.862325 1.00291 0.0460673
65 2 0.904363 0.10316 0.135338
31 3 0.053901 0.340373 0.28376
61 4 0.458305 0.748031 0.0693209
37 4 0.846109 0.498929 0.417544
69 2 0.207492 0.0502457 0.0918421
29 3 0.961014 0.364964 0.359135
82 4 0.386573 0.175976 0.243917
33 3 0.0975939 0.422665 0.205048
73 3 0.245616 0.104131 0.354212
35 1 0.91654 0.262507 0.436999
70 2 0.112693 0.140471 0.175728
90 1 0.252131 0.807923 0.158704
58 1 0.919121 1.00997 0.1276
54 3 0.556902 0.732253 0.0913531
48 2 0.696336 0.970187 0.310688
53 3 0.798731 0.754979 0.0521824
60 4 0.885404 0.751966 0.0418229
93 2 0.326172 0.752248 0.181917
88 2 0.336151 0.977428 0.163519
75 3 0.341665 0.182504 0.329395
77 3 0.378366 0.270133 0.405718
89 1 0.22099 0.80468 0.0298574
49 2 0.927034 1.01382 0.427485
38 4 0.0855308 0.257143 0.298489
34 3 0.0594195 0.533995 0.213282
68 1 0.0445252 0.974483 0.113917
79 1 0.192499 0.00106359 0.280291
41 4 0.0934927 0.609267 0.167341
30 3 0.916207 0.477028 0.363955
32 3 0.977421 0.557566 0.295177
36 1 0.859961 0.171953 0.34471
39 4 0.955927 0.642094 0.314158
64 2 0.909961 0.857694 0.214019
46 1 0.848851 0.0436023 0.387774
87 2 0.349599 0.886007 0.285192
44 2 0.923688 0.165766 0.285836
50 2 0.790028 0.0464212 0.462305
47 2 0.802084 0.883735 0.35874
43 2 0.781988 0.202953 0.324909
59 4 0.589494 0.883327 0.194741
80 1 0.285854 0.922575 0.222018
52 3 0.624429 0.8162 0.140671
67 1 0.139551 0.0504636 0.159268
57 1 0.842774 0.914156 0.195217
45 1 0.793156 0.95681 0.304734
51 3 0.749265 0.824749 0.138865
94 2 0.173608 0.771976 0.205943
72 2 0.0700596 0.9501 0.0192382
22 2 0.868523 0.033399 0.613004
9 3 0.656126 0.954271 0.706924
15 4 0.917058 0.859145 0.792663
12 3 0.655973 0.741523 0.721183
7 3 0.764826 0.950707 0.767289
5 2 0.671611 0.0512338 0.958115
17 4 0.828934 0.673638 0.72126
24 1 0.946608 0.197345 0.672283
55 3 0.735336 0.677507 0.989751
3 2 0.869266 0.216158 0.901783
8 3 0.825564 0.842771 0.764529
6 2 0.642937 0.217471 0.962695
20 2 0.920374 0.0325849 0.82827
4 2 0.749112 0.238727 0.80985
85 4 0.384131 0.32786 0.582513
18 4 0.505949 0.851639 0.667784
62 4 0.777228 0.621503 0.926323
26 2 0.0599306 0.255078 0.541938
91 2 0.160739 0.737137 1.00256
10 3 0.77851 0.746013 0.732983
27 2 0.0204063 0.176663 0.720826
13 1 0.841456 0.0587888 0.789822
2 1 0.698114 0.144589 0.954048
1 1 0.791483 0.173118 0.864467
63 4 0.567618 0.599477 0.968198
21 2 0.770397 0.14786 0.626104
19 4 0.609712 0.663801 0.695035
56 3 0.615857 0.655056 1.02208
14 1 0.852138 0.105748 0.661869
83 4 0.227298 0.181331 0.637903
11 3 0.590482 0.843355 0.711176
16 4 0.599015 0.0214996 0.682624
28 2 0.903938 0.278266 0.692222
76 3 0.281564 0.168058 0.556497
25 2 0.0338684 0.128932 0.529691
23 1 0.984696 0.210704 0.541314
78 3 0.352966 0.257536 0.522219
92 2 0.295242 0.781247 0.970551
ITEM: TIMESTEP
900
ITEM: NUMBER OF ATOMS
94
ITEM: BOX BOUNDS pp pp pp
-5.79054 5.79054
-5.79054 5.79054
-5.79054 5.79054
ITEM: ATOMS id type xs ys zs
62 4 0.822759 0.604167 0.0591169
86 2 0.124775 0.901515 0.365176
40 4 0.220005 0.330399 0.248427
84 4 0.44365 0.202327 0.323445
71 2 0.0593246 0.879384 0.133628
56 3 0.653163 0.64185 0.103056
91 2 0.119532 0.694705 0.073803
66 2 0.856227 0.967083 0.0766113
65 2 0.904472 0.0914439 0.173359
31 3 0.0975702 0.325457 0.378896
61 4 0.487846 0.698237 0.153138
37 4 0.852228 0.495871 0.41429
69 2 0.172788 0.0933495 0.182127
29 3 0.999362 0.379282 0.429171
82 4 0.345027 0.0706607 0.243116
33 3 0.142196 0.373132 0.27913
73 3 0.25662 0.0113626 0.398663
63 4 0.617983 0.57764 0.0459962
70 2 0.065781 0.106138 0.271065
90 1 0.208966 0.741937 0.242125
58 1 0.903621 0.996831 0.157101
54 3 0.584988 0.723778 0.15125
48 2 0.778475 0.132086 0.273521
53 3 0.820094 0.751628 0.148823
60 4 0.911625 0.743729 0.123814
93 2 0.260812 0.674716 0.279895
88 2 0.259402 0.883044 0.151573
75 3 0.340373 0.0659931 0.341855
77 3 0.41993 0.135585 0.388369
89 1 0.2077 0.697603 0.11303
49 2 0.923951 0.0676101 0.427935
38 4 0.127858 0.25016 0.413793
34 3 0.100667 0.47965 0.243734
68 1 0.0330995 0.973618 0.147554
79 1 0.183745 0.949598 0.30795
41 4 0.134713 0.512864 0.164354
30 3 0.932676 0.472803 0.373942
32 3 0.994864 0.520416 0.281538
36 1 0.835932 0.23818 0.449164
39 4 0.955391 0.585614 0.235664
64 2 0.869917 0.898751 0.310612
46 1 0.842035 0.103473 0.430899
87 2 0.357264 0.856412 0.241663
44 2 0.848081 0.284355 0.361739
92 2 0.251278 0.611395 0.111413