ITEM: TIMESTEP
0
ITEM: NUMBER OF ATOMS
28
ITEM: BOX BOUNDS pp pp pp
-5.79054 5.79054
-5.79054 5.79054
-5.79054 5.79054
ITEM: ATOMS id type xs ys zs
10 3 0.685142 0.534511 0.0189021
12 3 0.789496 0.474794 0.0187769
17 4 0.624686 0.523106 0.0898385
19 4 0.810655 0.416772 0.0894832
1 1 0.654546 0.639973 0.630597
2 1 0.741151 0.554765 0.576047
3 2 0.577781 0.591849 0.656925
4 2 0.626763 0.702246 0.565343
5 2 0.813774 0.60053 0.537045
6 2 0.699113 0.50412 0.508489
7 3 0.734769 0.623989 0.836177
8 3 0.657929 0.608639 0.928049
9 3 0.83931 0.563467 0.836843
11 3 0.866546 0.489292 0.927616
13 1 0.702599 0.705203 0.737055
14 1 0.800824 0.78886 0.703252
15 4 0.575959 0.654388 0.929095
16 4 0.900134 0.573047 0.766082
18 4 0.947895 0.442482 0.927025
20 2 0.632438 0.760405 0.767787
21 2 0.875784 0.743587 0.668512
22 2 0.828613 0.8391 0.778106
23 1 0.094913 0.0393307 0.602045
24 1 0.997274 0.956173 0.635646
25 2 0.0789077 0.124604 0.639024
26 2 0.0998273 0.0482133 0.508199
27 2 0.992156 0.948829 0.729584
28 2 0.0135459 0.870267 0.600232
ITEM: TIMESTEP
100
ITEM: NUMBER OF ATOMS
28
ITEM: BOX BOUNDS pp pp pp
-5.79054 5.79054
-5.79054 5.79054
-5.79054 5.79054
ITEM: ATOMS id type xs ys zs
19 4 0.623562 0.427453 0.00362449
17 4 0.594798 0.623222 0.0713253
26 2 0.0160237 0.854802 0.477561
10 3 0.651508 0.607385 -0.00344808
1 1 0.713572 0.738335 0.60751
2 1 0.618679 0.65089 0.629338
3 2 0.660814 0.812405 0.585591
4 2 0.777468 0.727875 0.545503
5 2 0.548746 0.623514 0.567885
6 2 0.587461 0.682583 0.708921
7 3 0.788524 0.68066 0.829925
8 3 0.693527 0.691833 0.911453
9 3 0.841507 0.559552 0.84814
11 3 0.789366 0.475618 0.916888
13 1 0.806918 0.756123 0.713922
14 1 0.936283 0.832553 0.70222
15 4 0.677655 0.78289 0.933058
16 4 0.921587 0.524328 0.803468
18 4 0.8226 0.392448 0.896928
20 2 0.76311 0.818489 0.743399
21 2 1.01155 0.776861 0.694591
22 2 0.927481 0.864392 0.788989
23 1 0.0520686 0.927257 0.511175
24 1 0.971798 0.964814 0.617506
25 2 0.139258 0.964921 0.497399
28 2 0.901558 1.03395 0.602301
27 2 0.0313687 0.0214642 0.674224
12 3 0.682267 0.49747 0.977286
ITEM: TIMESTEP
200
ITEM: NUMBER OF ATOMS
28
ITEM: BOX BOUNDS pp pp pp
-5.79054 5.79054
-5.79054 5.79054
-5.79054 5.79054
ITEM: ATOMS id type xs ys zs
17 4 0.634933 0.724248 0.0678777
19 4 0.633518 0.543939 0.0455694
26 2 0.0638235 0.822326 0.491368
25 2 0.0784086 0.992133 0.49217
1 1 0.696355 0.77752 0.588062
2 1 0.625008 0.877786 0.532158
23 1 0.03705 0.907832 0.51847
4 2 0.642261 0.700087 0.590517
5 2 0.646909 0.960865 0.577845
6 2 0.533957 0.870715 0.538203
7 3 0.75578 0.695092 0.800479
8 3 0.742574 0.751711 0.909119
9 3 0.790903 0.576324 0.805377
11 3 0.735211 0.516124 0.899116
13 1 0.775637 0.78204 0.699067
14 1 0.921214 0.801122 0.679509
15 4 0.753339 0.848853 0.91384
16 4 0.866864 0.526552 0.757917
18 4 0.763892 0.429107 0.927968
20 2 0.738498 0.854767 0.751387
21 2 0.978738 0.723233 0.653291
22 2 0.935303 0.800464 0.775475
12 3 0.673969 0.58388 0.971537
24 1 0.0134612 0.901407 0.654336
27 2 0.103868 0.860975 0.679613
28 2 1.00076 0.989929 0.693038
10 3 0.678525 0.694073 0.982973
3 2 0.743922 0.770582 0.515886
ITEM: TIMESTEP
300
ITEM: NUMBER OF ATOMS
28
ITEM: BOX BOUNDS pp pp pp
-5.79054 5.79054
-5.79054 5.79054
-5.79054 5.79054
ITEM: ATOMS id type xs ys zs
17 4 0.792594 0.765257 0.0633426
19 4 0.697103 0.572356 0.0389852
26 2 0.0434612 0.808784 0.428847
6 2 0.781833 0.857373 0.41715
25 2 0.088481 0.93932 0.513096
5 2 0.74252 0.0285893 0.441779
2 1 0.772684 0.936455 0.470492
1 1 0.682218 0.906567 0.568868
28 2 0.0080496 0.904719 0.700141
23 1 0.0288847 0.857041 0.509151
4 2 0.677504 1.00177 0.594034
27 2 0.0475514 0.752519 0.682292
3 2 0.604836 0.884779 0.521284
7 3 0.708861 0.76725 0.7912
8 3 0.762652 0.795097 0.890461
9 3 0.673715 0.652317 0.777691
11 3 0.677667 0.578048 0.864088
13 1 0.748834 0.844337 0.68418
14 1 0.877801 0.791939 0.674064
15 4 0.809219 0.876382 0.899849
16 4 0.639048 0.633166 0.692364
18 4 0.670421 0.484254 0.843488
20 2 0.751347 0.92923 0.73478
21 2 0.86472 0.704053 0.642217
22 2 0.902897 0.771359 0.762564
12 3 0.69153 0.634774 0.969578
24 1 0.994193 0.830151 0.642647
10 3 0.750095 0.733769 0.982671
ITEM: TIMESTEP
400
ITEM: NUMBER OF ATOMS
28
ITEM: BOX BOUNDS pp pp pp
-5.79054 5.79054
-5.79054 5.79054
-5.79054 5.79054
ITEM: ATOMS id type xs ys zs
17 4 0.763768 0.764993 0.0724772
23 1 0.0456744 0.798187 0.462937
26 2 0.0590163 0.697617 0.444189
6 2 0.821699 0.992657 0.434708
25 2 0.0956852 0.857429 0.39628
5 2 0.682626 0.0756239 0.450923
19 4 0.56339 0.706452 0.044337
2 1 0.7615 0.0343881 0.490269
1 1 0.721409 0.939064 0.583973
28 2 0.0191593 0.93037 0.612642
10 3 0.730387 0.763377 0.980765
4 2 0.651135 0.976538 0.634547
27 2 0.058029 0.785842 0.652723
3 2 0.659754 0.876917 0.530822
7 3 0.742835 0.783978 0.764259
8 3 0.78032 0.804063 0.878878
9 3 0.627676 0.741715 0.766011
11 3 0.569014 0.687915 0.861944
13 1 0.800242 0.879816 0.672022
14 1 0.891273 0.807357 0.595614
15 4 0.858297 0.856734 0.900391
16 4 0.579371 0.739455 0.684714
18 4 0.483121 0.63826 0.852073
20 2 0.826844 0.954822 0.725249
21 2 0.866736 0.770769 0.512701
22 2 0.903854 0.723528 0.637678
12 3 0.612101 0.727493 0.965728
24 1 0.008623 0.841578 0.588443
ITEM: TIMESTEP
500
ITEM: NUMBER OF ATOMS
28
ITEM: BOX BOUNDS pp pp pp
-5.79054 5.79054
-5.79054 5.79054
-5.79054 5.79054
ITEM: ATOMS id type xs ys zs
17 4 0.754767 0.812296 0.0422623
21 2 0.774679 0.771574 0.4915
19 4 0.533706 0.784144 0.0191651
6 2 0.842095 0.15289 0.481775
24 1 0.960265 0.812647 0.458703
28 2 0.94983 0.785809 0.370269
27 2 0.972135 0.907777 0.462164
26 2 0.127959 0.729125 0.466529
1 1 0.748561 0.00462074 0.580415
5 2 0.868209 0.158581 0.627458
10 3 0.710999 0.801029 0.954644
4 2 0.682721 0.0354351 0.632163
23 1 0.0459766 0.737099 0.524514
3 2 0.701702 0.975382 0.494792
7 3 0.732798 0.834198 0.73835
8 3 0.768234 0.83131 0.849207
9 3 0.614024 0.838737 0.754407
11 3 0.540347 0.816248 0.843139
13 1 0.804441 0.889768 0.640046
14 1 0.855973 0.806374 0.534378
15 4 0.864664 0.840357 0.868553
16 4 0.552323 0.838251 0.683683
18 4 0.440666 0.814931 0.845085
20 2 0.877685 0.914389 0.692425
2 1 0.813737 0.131037 0.566968
22 2 0.876309 0.734284 0.5903
12 3 0.593471 0.785367 0.945141
25 2 0.0152204 0.644415 0.550883
ITEM: TIMESTEP
600
ITEM: NUMBER OF ATOMS
28
ITEM: BOX BOUNDS pp pp pp
-5.79054 5.79054
-5.79054 5.79054
-5.79054 5.79054
ITEM: ATOMS id type xs ys zs
26 2 0.0207736 0.660157 0.452278
27 2 0.886345 0.822434 0.401224
28 2 0.817889 0.697132 0.437529
3 2 0.829263 0.0218383 0.443243
24 1 0.862046 0.773456 0.471626
21 2 0.704397 0.881016 0.463213
1 1 0.816591 0.0561694 0.539832
5 2 0.927522 0.122914 0.670767
10 3 0.711896 0.83311 0.908925
4 2 0.742502 0.105178 0.544724
23 1 0.98797 0.720077 0.518233
25 2 0.0496881 0.760734 0.580878
7 3 0.729083 0.964701 0.736749
8 3 0.767197 0.911609 0.846486
9 3 0.608141 0.932868 0.728642
11 3 0.532094 0.872129 0.799436
13 1 0.803101 0.943657 0.619705
14 1 0.758419 0.844076 0.536865
15 4 0.852257 0.898509 0.863018
16 4 0.562225 0.961777 0.657329
18 4 0.436829 0.861673 0.789181
20 2 0.888916 0.89542 0.646007
2 1 0.929095 0.114915 0.583978
22 2 0.703055 0.777419 0.589572
12 3 0.591615 0.813935 0.883054
6 2 0.999359 0.0522327 0.57288
17 4 0.76567 0.784881 0.972417
19 4 0.550541 0.759866 0.950571
ITEM: TIMESTEP
700
ITEM: NUMBER OF ATOMS
28
ITEM: BOX BOUNDS pp pp pp
-5.79054 5.79054
-5.79054 5.79054
-5.79054 5.79054
ITEM: ATOMS id type xs ys zs
24 1 0.866564 0.818019 0.402472
27 2 0.941278 0.872953 0.374355
28 2 0.834426 0.773854 0.318972
3 2 0.81059 0.0928907 0.488563
23 1 0.907708 0.70725 0.444105
21 2 0.740222 0.944551 0.429383
25 2 0.963802 0.651338 0.398569
17 4 0.723983 0.905613 0.00553787
26 2 0.868993 0.664246 0.51215
1 1 0.822816 0.0633058 0.581389
5 2 0.977157 0.0911829 0.708161
10 3 0.680445 0.937616 0.920605
4 2 0.75623 0.115854 0.602989
6 2 0.0142695 0.0584542 0.553426
19 4 0.499979 1.00302 0.963053
7 3 0.728965 0.930063 0.714711
8 3 0.751604 0.896168 0.828357
9 3 0.617183 0.956898 0.700836
11 3 0.546271 1.0138 0.777169
13 1 0.811624 0.927859 0.599955
14 1 0.767126 0.876106 0.481822
15 4 0.835896 0.872432 0.869371
16 4 0.585913 0.956988 0.618339
18 4 0.459666 0.0351238 0.747856
20 2 0.892352 0.893771 0.64112
2 1 0.947752 0.0976602 0.621576
22 2 0.692291 0.818903 0.493207
12 3 0.571167 0.994768 0.892251
ITEM: TIMESTEP
800
ITEM: NUMBER OF ATOMS
28
ITEM: BOX BOUNDS pp pp pp
-5.79054 5.79054
-5.79054 5.79054
-5.79054 5.79054
ITEM: ATOMS id type xs ys zs
24 1 0.857263 0.832407 0.396103
27 2 0.930287 0.837834 0.454545
28 2 0.894549 0.890842 0.330201
26 2 0.900748 0.667241 0.364961
23 1 0.831131 0.720193 0.355198
21 2 0.710809 0.959032 0.439174
25 2 0.772251 0.702023 0.295871
14 1 0.749372 0.89019 0.474202
3 2 0.904293 0.035565 0.483385
22 2 0.688305 0.826387 0.485116
1 1 0.878806 0.0365717 0.574869
5 2 0.0412442 0.99074 0.653936
10 3 0.658909 1.0077 0.88929
4 2 0.824262 0.110274 0.575734
6 2 0.0179729 0.127202 0.702907
19 4 0.503181 0.094724 0.929584
7 3 0.715855 0.980449 0.690547
8 3 0.72769 0.959932 0.809348
9 3 0.621069 0.0561935 0.668006
11 3 0.555396 0.12301 0.749524
13 1 0.795696 0.937159 0.598725
12 3 0.576731 0.0891704 0.861898
15 4 0.780422 0.896179 0.842801
16 4 0.597564 0.0720625 0.580785
18 4 0.490291 0.178245 0.740376
20 2 0.861315 0.868527 0.638189
2 1 0.965199 0.0389339 0.679233
17 4 0.673561 0.969616 0.976308
ITEM: TIMESTEP
900
ITEM: NUMBER OF ATOMS
28
ITEM: BOX BOUNDS pp pp pp
-5.79054 5.79054
-5.79054 5.79054
-5.79054 5.79054
ITEM: ATOMS id type xs ys zs
24 1 0.779928 0.826518 0.422183
27 2 0.816785 0.742186 0.445821
28 2 0.848273 0.875803 0.377767
26 2 0.676112 0.774939 0.260068
23 1 0.681106 0.823333 0.339763
21 2 0.68971 0.977288 0.484519
25 2 0.608694 0.877756 0.345085
1 1 0.930399 0.0127519 0.579717
5 2 0.00433608 0.149421 0.693737
10 3 0.607771 0.0398487 0.822569
4 2 0.9052 0.0784232 0.521002
6 2 0.967477 0.0310561 0.762932
19 4 0.464621 0.166336 0.784078
7 3 0.746605 0.0380813 0.678062
8 3 0.704208 0.98964 0.779134
9 3 0.699437 0.142592 0.630773
11 3 0.60484 0.191229 0.681032
13 1 0.822736 0.946854 0.608044
12 3 0.553414 0.133524 0.764004
15 4 0.723001 0.900694 0.809539
16 4 0.71984 0.173931 0.545457
18 4 0.557901 0.250737 0.643439
20 2 0.849728 0.860026 0.654036
2 1 1.01193 0.0604956 0.682429
17 4 0.561288 0.996291 0.893316
3 2 0.974569 0.95168 0.531435
22 2 0.698682 0.848353 0.560385
14 1 0.74053 0.907802 0.519887
ITEM: TIMESTEP
1000
ITEM: NUMBER OF ATOMS
28
ITEM: BOX BOUNDS pp pp pp
-5.79054 5.79054
-5.79054 5.79054
-5.79054 5.79054
ITEM: ATOMS id type xs ys zs
24 1 0.732531 0.833304 0.436299
25 2 0.732997 0.878965 0.247928
28 2 0.819729 0.803946 0.42897
26 2 0.588339 0.882899 0.313629
23 1 0.679269 0.840843 0.314775
21 2 0.712489 0.0100447 0.444383
4 2 0.927444 0.0271022 0.46971
1 1 0.924124 0.980864 0.545649
5 2 0.00293595 0.00524443 0.715126
10 3 0.560063 0.121295 0.757973
14 1 0.707694 0.944237 0.509181
6 2 0.104115 0.041882 0.600218
19 4 0.525959 0.307483 0.77395
7 3 0.738537 0.0727171 0.667106
8 3 0.640712 0.0374388 0.729799
9 3 0.753251 0.191166 0.647757
11 3 0.677237 0.271449 0.701254
13 1 0.794967 0.973342 0.594855
12 3 0.578865 0.233643 0.748882
15 4 0.617306 0.945468 0.729439
16 4 0.812531 0.222125 0.582941
18 4 0.681733 0.354178 0.683283
20 2 0.803117 0.890218 0.656018
2 1 0.0139167 0.0419997 0.631143
17 4 0.470656 0.0942628 0.774193
3 2 0.950438 0.894451 0.528283
22 2 0.623105 0.938158 0.546632
27 2 0.68177 0.766427 0.468278
ITEM: TIMESTEP
1100
ITEM: NUMBER OF ATOMS
28
ITEM: BOX BOUNDS pp pp pp
-5.79054 5.79054
-5.79054 5.79054
-5.79054 5.79054
ITEM: ATOMS id type xs ys zs
24 1 0.737484 0.865217 0.391209
25 2 0.676402 0.68909 0.330612
28 2 0.821465 0.866732 0.345793
26 2 0.6631 0.80305 0.222228
23 1 0.658644 0.78186 0.320642
21 2 0.723304 0.0424445 0.369677
4 2 0.920008 0.0338996 0.491101
27 2 0.754648 0.81085 0.460614
14 1 0.691462 0.988476 0.439873
22 2 0.597851 -0.00597529 0.436524
1 1 0.869602 0.984807 0.546262
5 2 0.993765 0.940704 0.680733
10 3 0.578881 0.220003 0.738296
17 4 0.497587 0.229727 0.789349
6 2 0.972743 0.0689508 0.669973
19 4 0.633477 0.351836 0.842976
7 3 0.714757 0.133602 0.611689
8 3 0.599321 0.138842 0.657951
9 3 0.793111 0.23087 0.632036
11 3 0.759868 0.31019 0.72487
13 1 0.743654 0.0248428 0.548802
12 3 0.652396 0.299193 0.770302
15 4 0.531234 0.0723398 0.642436
16 4 0.872419 0.227345 0.578974
18 4 0.817681 0.377035 0.75243
20 2 0.703764 0.961278 0.617067
2 1 0.926431 -0.00543761 0.672241
3 2 0.897354 0.900473 0.526368
ITEM: TIMESTEP
1200
ITEM: NUMBER OF ATOMS
28
ITEM: BOX BOUNDS pp pp pp
-5.79054 5.79054
-5.79054 5.79054
-5.79054 5.79054
ITEM: ATOMS id type xs ys zs
24 1 0.695463 0.903094 0.372711
25 2 0.54504 0.964752 0.255599
28 2 0.763224 0.851759 0.326282
26 2 0.534398 0.821226 0.313444
23 1 0.565345 0.910983 0.330478
21 2 0.812177 0.0583473 0.358401
22 2 0.675522 0.0833914 0.398182
27 2 0.681085 0.855726 0.448023
14 1 0.741426 0.028427 0.412027
1 1 0.854823 0.967759 0.577291
5 2 0.96032 0.993285 0.749386
10 3 0.589891 0.282003 0.698657
17 4 0.512776 0.299641 0.759051
6 2 0.819317 0.0145434 0.769292
19 4 0.664574 0.449058 0.700659
7 3 0.721528 0.155887 0.599578
8 3 0.605722 0.181707 0.632567
9 3 0.815 0.234682 0.612784
11 3 0.788874 0.342386 0.649659
13 1 0.748105 0.0341794 0.540235
12 3 0.677208 0.365115 0.678673
15 4 0.549563 0.10436 0.621116
16 4 0.909787 0.229913 0.59776
18 4 0.858911 0.401033 0.663764
20 2 0.671662 0.980676 0.566648
2 1 0.877127 0.966167 0.714817
3 2 0.835371 0.879186 0.554836
4 2 0.923631 -0.00320953 0.518992
ITEM: TIMESTEP
1300
ITEM: NUMBER OF ATOMS
28
ITEM: BOX BOUNDS pp pp pp
-5.79054 5.79054
-5.79054 5.79054
-5.79054 5.79054
ITEM: ATOMS id type xs ys zs
24 1 0.645225 0.985955 0.354054
25 2 0.535598 0.104402 0.282523
28 2 0.676508 0.980184 0.266549
26 2 0.464834 1.01772 0.372497
23 1 0.542621 0.0652736 0.364012
21 2 0.820967 -0.0209057 0.384748
22 2 0.76002 0.106552 0.369666
27 2 0.62403 0.903793 0.369492
14 1 0.749435 0.0349616 0.417205
1 1 0.830273 0.979674 0.601141
5 2 0.74631 0.056164 0.781052
10 3 0.6233 0.331988 0.641631
17 4 0.550779 0.3777 0.682633
6 2 0.739044 0.897526 0.757721
19 4 0.706069 0.487359 0.606811
7 3 0.729166 0.163869 0.600659
8 3 0.622088 0.216554 0.625161
9 3 0.822654 0.23209 0.570096
11 3 0.80802 0.344793 0.540212
13 1 0.745824 0.0460927 0.544516
12 3 0.714362 0.400445 0.599154
15 4 0.539333 0.170774 0.643897
16 4 0.902587 0.18136 0.563067
18 4 0.88644 0.388319 0.519482
20 2 0.677026 -0.0138741 0.551278
2 1 0.798491 0.973676 0.741392
3 2 0.826697 0.892613 0.568702
4 2 0.921153 0.00757663 0.578014
ITEM: TIMESTEP
1400
ITEM: NUMBER OF ATOMS
28
ITEM: BOX BOUNDS pp pp pp
-5.79054 5.79054
-5.79054 5.79054
-5.79054 5.79054
ITEM: ATOMS id type xs ys zs
24 1 0.609532 0.0412615 0.343323
25 2 0.571224 0.223828 0.283935
28 2 0.619933 0.0216327 0.252504
26 2 0.464686 0.158824 0.38625
23 1 0.546185 0.165555 0.3516
21 2 0.702754 0.926161 0.44737
22 2 0.772889 0.0406052 0.371593
27 2 0.535035 0.992724 0.372397
14 1 0.704582 0.0131498 0.428708
16 4 0.894807 0.193924 0.477772
18 4 0.921761 0.411337 0.456288
1 1 0.793199 0.0136741 0.632384
5 2 0.807481 0.898224 0.791189
10 3 0.669026 0.39313 0.606623
17 4 0.6114 0.443488 0.66181
6 2 0.637441 0.911354 0.732841
19 4 0.785852 0.53478 0.560457
7 3 0.719723 0.197075 0.538872
8 3 0.64315 0.267689 0.591262
9 3 0.824685 0.245301 0.509293
11 3 0.849393 0.369888 0.502504
13 1 0.705705 0.0718522 0.552315
12 3 0.767663 0.446102 0.554005
15 4 0.580783 0.223081 0.650874
3 2 0.865161 0.964474 0.589283
4 2 0.857906 0.0774937 0.66803
20 2 0.624966 0.0536051 0.591752
2 1 0.729738 0.952304 0.744872
ITEM: TIMESTEP
1500
ITEM: NUMBER OF ATOMS
28
ITEM: BOX BOUNDS pp pp pp
-5.79054 5.79054
-5.79054 5.79054
-5.79054 5.79054
ITEM: ATOMS id type xs ys zs
24 1 0.540403 0.125969 0.395572
25 2 0.547969 0.216495 0.224938
28 2 0.478692 0.0723942 0.361252
26 2 0.658868 0.213813 0.313288
23 1 0.598306 0.163013 0.277748
9 3 0.832044 0.268889 0.459221
22 2 0.694668 0.0473047 0.379226
27 2 0.507726 0.198978 0.4515
14 1 0.628304 0.0470865 0.451981
16 4 0.874829 0.19281 0.427776
18 4 0.968203 0.402049 0.416629
11 3 0.880463 0.378896 0.451683
1 1 0.735329 0.053461 0.657649
5 2 0.719931 0.879552 0.757943
10 3 0.709736 0.446091 0.56472
17 4 0.652268 0.519861 0.57874
6 2 0.696382 0.847843 0.6357
19 4 0.864941 0.554221 0.508676
7 3 0.730508 0.237934 0.523338
8 3 0.673773 0.331341 0.582303
2 1 0.678207 0.927741 0.684975
20 2 0.591371 0.139833 0.603094
13 1 0.671517 0.119934 0.561979
12 3 0.82945 0.468067 0.517134
15 4 0.593526 0.314008 0.632401
3 2 0.825002 0.0595721 0.637538
4 2 0.748669 0.106208 0.738569
21 2 0.605684 0.962074 0.47543
ITEM: TIMESTEP
1600
ITEM: NUMBER OF ATOMS
28
ITEM: BOX BOUNDS pp pp pp
-5.79054 5.79054
-5.79054 5.79054
-5.79054 5.79054
ITEM: ATOMS id type xs ys zs
24 1 0.552849 0.223714 0.378204
25 2 0.560935 0.0925979 0.241676
28 2 0.466261 0.259628 0.386777
26 2 0.652468 0.214709 0.204796
23 1 0.576862 0.1849 0.253798
9 3 0.815861 0.252821 0.464211
22 2 0.651193 0.0705355 0.421644
27 2 0.611681 0.298006 0.366811
14 1 0.591178 0.118968 0.463144
16 4 0.83838 0.167928 0.433566
18 4 0.964308 0.318694 0.364504
11 3 0.889701 0.342432 0.423907
21 2 0.524157 0.0507353 0.49135
19 4 0.902636 0.535421 0.402438
12 3 0.865598 0.459652 0.446458
1 1 0.705033 0.0889395 0.647136
5 2 0.715082 0.907052 0.702777
10 3 0.76593 0.475487 0.51896
17 4 0.741897 0.559439 0.551752
6 2 0.633575 0.933777 0.576864
4 2 0.719039 0.135891 0.722414
7 3 0.716144 0.280283 0.534409
8 3 0.697766 0.391406 0.568288
2 1 0.649353 0.959863 0.663063
20 2 0.561335 0.206798 0.624798
13 1 0.63736 0.177818 0.574242
3 2 0.784288 0.0792787 0.598637
15 4 0.650188 0.427596 0.635923
ITEM: TIMESTEP
1700
ITEM: NUMBER OF ATOMS
28
ITEM: BOX BOUNDS pp pp pp
-5.79054 5.79054
-5.79054 5.79054
-5.79054 5.79054
ITEM: ATOMS id type xs ys zs
24 1 0.542756 0.257281 0.335524
25 2 0.382572 0.17717 0.27776
28 2 0.48669 0.313192 0.389562
26 2 0.525753 0.119299 0.208265
23 1 0.469853 0.1948 0.244328
9 3 0.830827 0.268317 0.443594
22 2 0.656641 0.108631 0.389214
27 2 0.610689 0.308227 0.295115
14 1 0.598724 0.160904 0.424503
16 4 0.845957 0.177359 0.432219
18 4 0.987327 0.305157 0.360701
11 3 0.911327 0.344819 0.4017
12 3 0.917082 0.45841 0.442569
19 4 0.985055 0.51678 0.400501
21 2 0.512861 0.110476 0.452307
1 1 0.676075 0.120411 0.620168
5 2 0.524244 0.137976 0.734277
10 3 0.827424 0.499103 0.514164
17 4 0.824459 0.587546 0.536029
6 2 0.588088 1.01749 0.746748
4 2 0.738061 0.160106 0.678029
7 3 0.738388 0.307869 0.517871
8 3 0.736131 0.430513 0.556824
2 1 0.556763 0.0735406 0.675705
20 2 0.571939 0.279419 0.567863
13 1 0.639243 0.22201 0.537646
3 2 0.732589 0.0519065 0.593555
15 4 0.672979 0.466933 0.607028
ITEM: TIMESTEP
1800
ITEM: NUMBER OF ATOMS
28
ITEM: BOX BOUNDS pp pp pp
-5.79054 5.79054
-5.79054 5.79054
-5.79054 5.79054
ITEM: ATOMS id type xs ys zs
24 1 0.504246 0.278121 0.298036
25 2 0.376837 0.230669 0.165331
28 2 0.502209 0.371584 0.319378
26 2 0.339679 0.149571 0.314623
23 1 0.396732 0.208108 0.253769
9 3 0.834291 0.270951 0.423904
22 2 0.621764 0.160212 0.367595
27 2 0.561873 0.268918 0.224898
14 1 0.571985 0.218552 0.399667
16 4 0.814613 0.183089 0.394572
18 4 0.0123023 0.278145 0.367231
11 3 0.943567 0.323598 0.41397
12 3 0.960386 0.428001 0.462967
19 4 0.054122 0.452454 0.484174
21 2 0.497123 0.163885 0.447114
7 3 0.74351 0.340131 0.472627
13 1 0.634513 0.282474 0.499502
1 1 0.656646 0.196993 0.60071
5 2 0.483136 0.132317 0.669465
10 3 0.874306 0.49479 0.510105
17 4 0.90117 0.577441 0.553085
6 2 0.501218 0.287875 0.723649
4 2 0.730229 0.204041 0.648924
15 4 0.691524 0.504756 0.545194
8 3 0.758588 0.460757 0.504014
2 1 0.546392 0.203751 0.683439
20 2 0.592696 0.362404 0.513398
3 2 0.681374 0.115864 0.567241
ITEM: TIMESTEP
1900
ITEM: NUMBER OF ATOMS
28
ITEM: BOX BOUNDS pp pp pp
-5.79054 5.79054
-5.79054 5.79054
-5.79054 5.79054
ITEM: ATOMS id type xs ys zs
24 1 0.468025 0.3348 0.339939
25 2 0.345373 0.293571 0.20495
28 2 0.393467 0.320567 0.393084
26 2 0.509493 0.262718 0.169336
23 1 0.434479 0.264705 0.232173
9 3 0.830169 0.266737 0.42285
22 2 0.604127 0.21703 0.343564
27 2 0.495071 0.427778 0.328738
14 1 0.55437 0.257242 0.397288
16 4 0.808939 0.175705 0.41973
18 4 0.0030767 0.223312 0.389504
11 3 0.948145 0.296607 0.405106
12 3 0.984154 0.411576 0.413817
19 4 0.0812339 0.431994 0.418243
21 2 0.500224 0.183006 0.444731
7 3 0.7527 0.355877 0.450331
10 3 0.910492 0.491107 0.450179
13 1 0.627404 0.329023 0.477912
8 3 0.790318 0.470099 0.461778
17 4 0.93982 0.581978 0.455224
15 4 0.733814 0.535555 0.473094
1 1 0.608797 0.288629 0.60128
5 2 0.399175 0.300283 0.609947
3 2 0.65308 0.213285 0.597532
2 1 0.486096 0.287274 0.665278
6 2 0.491274 0.369626 0.71584
4 2 0.66434 0.340987 0.651022
20 2 0.585017 0.413881 0.4838
ITEM: TIMESTEP
2000
ITEM: NUMBER OF ATOMS
28
ITEM: BOX BOUNDS pp pp pp
-5.79054 5.79054
-5.79054 5.79054
-5.79054 5.79054
ITEM: ATOMS id type xs ys zs
24 1 0.461464 0.344028 0.348858
25 2 0.337516 0.365321 0.211589
28 2 0.41109 0.280418 0.382287
26 2 0.457358 0.43913 0.185344
23 1 0.434417 0.355377 0.221088
9 3 0.81942 0.277356 0.468769
22 2 0.624072 0.345786 0.279401
27 2 0.435625 0.417463 0.389631
14 1 0.58841 0.333193 0.3581
16 4 0.774927 0.198907 0.498442
18 4 0.959667 0.194376 0.431489
11 3 0.923166 0.273849 0.423473
12 3 0.958294 0.361334 0.348763
19 4 0.0260456 0.340654 0.277062
21 2 0.605356 0.231677 0.372609
7 3 0.761015 0.389296 0.466599
10 3 0.92459 0.471136 0.37987
13 1 0.626951 0.405834 0.467197
8 3 0.818231 0.490407 0.423118
17 4 0.981874 0.538569 0.345619
15 4 0.77863 0.572619 0.425491
20 2 0.583871 0.488877 0.471896
1 1 0.585703 0.343891 0.588013
5 2 0.382827 0.335785 0.596219
3 2 0.571396 0.256484 0.567915
2 1 0.46509 0.381049 0.634764
6 2 0.445223 0.469825 0.62227
4 2 0.659864 0.356216 0.647128
