ITEM: TIMESTEP
0
ITEM: NUMBER OF ATOMS
88
ITEM: BOX BOUNDS pp pp pp
-5.79054 5.79054
-5.79054 5.79054
-5.79054 5.79054
ITEM: ATOMS id type xs ys zs
1 1 0.138564 0.815475 0.3339
2 1 0.0327456 0.741125 0.365404
3 2 0.192729 0.824461 0.410634
4 2 0.110229 0.902029 0.309488
5 2 0.971693 0.737116 0.293582
6 2 0.987805 0.777728 0.439793
7 3 0.13879 0.750813 0.123919
8 3 0.116922 0.642428 0.0755915
9 3 0.0938465 0.849176 0.0701489
13 1 0.209771 0.760712 0.234858
14 1 0.323777 0.828741 0.216334
15 4 0.150734 0.564939 0.116382
16 4 0.109438 0.934238 0.106617
20 2 0.233658 0.673859 0.263232
21 2 0.365963 0.840867 0.299775
22 2 0.3046 0.91459 0.182195
23 1 0.516561 0.836365 0.103328
24 1 0.407709 0.7648 0.134011
25 2 0.489137 0.918698 0.0662042
26 2 0.563976 0.791006 0.035542
27 2 0.362734 0.745251 0.0533876
28 2 0.433015 0.682099 0.171835
29 3 0.644296 0.747719 0.260905
30 3 0.616229 0.720442 0.375048
31 3 0.716424 0.673365 0.198809
32 3 0.659806 0.620725 0.426454
33 3 0.760044 0.573631 0.250156
34 3 0.731908 0.547355 0.364123
35 1 0.59881 0.859206 0.206671
36 1 0.698377 0.940516 0.168091
37 4 0.560499 0.777257 0.424855
38 4 0.739718 0.693373 0.110136
40 4 0.816489 0.51664 0.201322
41 4 0.76633 0.469894 0.40451
42 2 0.548888 0.905886 0.271415
43 2 0.745758 0.900302 0.0970416
44 2 0.661952 0.0206636 0.133985
45 1 0.729907 0.0418002 0.363712
46 1 0.785439 0.970637 0.265155
47 2 0.690211 0.119756 0.328424
48 2 0.661384 0.990182 0.402273
49 2 0.823545 0.891853 0.300249
50 2 0.856078 0.0197903 0.226586
51 3 0.922406 0.13905 0.413573
52 3 0.0335163 0.0978206 0.436174
53 3 0.909425 0.240528 0.349424
54 3 0.130031 0.156068 0.394058
55 3 0.00591252 0.299108 0.307615
56 3 0.116307 0.256724 0.329678
57 1 0.817352 0.0739365 0.459883
59 4 0.0453611 0.0195164 0.486569
60 4 0.823782 0.274293 0.331411
61 4 0.216124 0.122923 0.411558
62 4 0.994986 0.37777 0.257504
63 4 0.191654 0.302231 0.296939
64 2 0.847843 0.992811 0.497432
70 2 0.526026 0.0889486 0.499606
80 1 0.171736 0.207456 0.477919
82 4 0.320135 0.391992 0.421257
84 4 0.433605 0.555544 0.498815
86 2 0.341007 0.131991 0.444905
87 2 0.12032 0.129481 0.464923
10 3 0.0518435 0.632556 0.974839
11 3 0.0284339 0.839337 0.969649
12 3 0.00753595 0.731003 0.921793
17 4 0.0357079 0.547921 0.93755
18 4 0.993828 0.916339 0.928569
19 4 0.956756 0.723294 0.843183
39 4 0.63772 0.600386 0.51543
58 1 0.760379 0.144611 0.558503
65 2 0.725545 0.225623 0.524922
66 2 0.828611 0.168503 0.619244
67 1 0.542684 0.110587 0.589722
68 1 0.66644 0.0782691 0.627022
69 2 0.526829 0.202784 0.601999
71 2 0.679292 0.985014 0.61986
72 2 0.67521 0.0996107 0.718533
73 3 0.365052 0.276439 0.5605
74 3 0.427492 0.264115 0.662778
75 3 0.368094 0.381483 0.501298
76 3 0.491906 0.356138 0.706041
77 3 0.432067 0.473705 0.544801
78 3 0.493965 0.461076 0.647218
79 1 0.295171 0.175222 0.515122
81 4 0.425989 0.182431 0.709067
83 4 0.540403 0.346053 0.785806
85 4 0.543877 0.533005 0.681142
88 2 0.12981 0.259848 0.544207
ITEM: TIMESTEP
100
ITEM: NUMBER OF ATOMS
88
ITEM: BOX BOUNDS pp pp pp
-5.79054 5.79054
-5.79054 5.79054
-5.79054 5.79054
ITEM: ATOMS id type xs ys zs
1 1 0.133865 0.794749 0.346218
2 1 0.0254261 0.724067 0.376586
3 2 0.193837 0.792926 0.412265
4 2 0.111971 0.880386 0.333943
5 2 0.946846 0.741958 0.326589
6 2 1.00837 0.752709 0.466011
7 3 0.1135 0.736106 0.132628
8 3 0.0996675 0.625285 0.0850466
9 3 0.0910223 0.836691 0.0677966
13 1 0.183134 0.738202 0.238108
14 1 0.30941 0.772017 0.211097
15 4 0.129832 0.547594 0.131145
16 4 0.107697 0.920072 0.0997905
20 2 0.19005 0.647622 0.261005
21 2 0.364448 0.777134 0.288204
22 2 0.307415 0.861191 0.17266
23 1 0.464916 0.747471 0.0587509
24 1 0.36448 0.691225 0.124132
25 2 0.430085 0.800082 -0.00955458
26 2 0.512971 0.684383 0.0118952
27 2 0.305201 0.658954 0.0551614
28 2 0.395765 0.611583 0.172113
29 3 0.619066 0.733875 0.225981
30 3 0.634545 0.747891 0.344263
31 3 0.673406 0.639228 0.175455
32 3 0.71912 0.684572 0.401152
33 3 0.752576 0.5741 0.23397
34 3 0.786957 0.601294 0.348909
35 1 0.544652 0.814738 0.151351
36 1 0.62439 0.903589 0.099894
37 4 0.587753 0.816887 0.38949
38 4 0.662739 0.62005 0.0850111
40 4 0.787739 0.519977 0.170227
41 4 0.859756 0.564012 0.391961
42 2 0.49439 0.871007 0.209051
43 2 0.694882 0.867945 0.0510057
44 2 0.573467 0.956526 0.0451409
45 1 0.656689 0.04918 0.285276
46 1 0.699721 0.984994 0.17991
47 2 0.572487 0.0953143 0.285696
48 2 0.653863 0.97891 0.351981
49 2 0.769331 0.929408 0.1959
50 2 0.717873 0.056714 0.123063
51 3 0.817744 0.166452 0.287361
52 3 0.88992 0.116388 0.230407
53 3 0.832334 0.284833 0.298406
54 3 0.906818 0.160984 0.109372
55 3 0.869493 0.342248 0.205234
56 3 0.905659 0.280518 0.107086
57 1 0.732158 0.118915 0.367045
59 4 0.894487 0.0255878 0.215803
60 4 0.767766 0.327668 0.358543
61 4 0.952678 0.108058 0.0456051
62 4 0.893898 0.42487 0.21387
63 4 0.939491 0.32822 0.0325611
69 2 0.395245 0.215313 0.445926
58 1 0.652344 0.208464 0.431696
64 2 0.782984 0.0631032 0.421518
65 2 0.598673 0.264756 0.363008
66 2 0.710067 0.271669 0.493701
10 3 0.0490466 0.617419 0.975185
11 3 0.0383172 0.824157 0.959642
12 3 0.0158234 0.716332 0.916309
17 4 0.0297732 0.535117 0.936752
18 4 0.0110714 0.897244 0.907975
19 4 0.974456 0.708339 0.833173
39 4 0.738193 0.700648 0.491909
70 2 0.401253 0.0959008 0.533007
75 3 0.522078 0.404711 0.611851
84 4 0.507246 0.586004 0.519184
67 1 0.429882 0.18489 0.531412
68 1 0.571793 0.147686 0.538511
86 2 0.299331 0.308377 0.613935
71 2 0.582496 0.0519699 0.538937
72 2 0.600048 0.182291 0.621277
73 3 0.455737 0.342812 0.701353
74 3 0.395642 0.395819 0.7936
88 2 0.290336 0.223237 0.811519
76 3 0.381647 0.514556 0.789347
77 3 0.477442 0.523614 0.592135
78 3 0.406501 0.562923 0.680359
79 1 0.374321 0.253601 0.648009
81 4 0.354733 0.358425 0.863723
83 4 0.350009 0.580977 0.845925
85 4 0.389907 0.656528 0.658376
80 1 0.356996 0.180935 0.756938
87 2 0.348509 0.0862764 0.746491
82 4 0.564373 0.356856 0.549005
ITEM: TIMESTEP
200
ITEM: NUMBER OF ATOMS
88
ITEM: BOX BOUNDS pp pp pp
-5.79054 5.79054
-5.79054 5.79054
-5.79054 5.79054
ITEM: ATOMS id type xs ys zs
1 1 0.0945135 0.751656 0.358498
2 1 0.986344 0.803089 0.417972
3 2 0.139402 0.720422 0.43178
4 2 0.136376 0.823913 0.325233
5 2 0.024305 0.849241 0.490272
65 2 0.479571 0.285885 0.308357
7 3 0.0495263 0.678364 0.13418
8 3 0.0274062 0.58061 0.0631833
9 3 0.059148 0.787837 0.0809279
13 1 0.100354 0.65848 0.259715
14 1 0.239383 0.640179 0.252091
15 4 0.0296077 0.49303 0.0930416
16 4 0.0949313 0.856534 0.130679
20 2 0.0710528 0.572741 0.287891
21 2 0.262743 0.571432 0.311187
22 2 0.290645 0.715265 0.291512
23 1 0.371577 0.716769 0.0723056
24 1 0.309299 0.620145 0.139258
66 2 0.609965 0.324219 0.323559
64 2 0.626569 0.0949085 0.291064
27 2 0.245737 0.587297 0.0756366
28 2 0.373954 0.549104 0.15649
29 3 0.557271 0.761262 0.173547
30 3 0.583791 0.767548 0.288902
31 3 0.634481 0.703789 0.0992137
32 3 0.689802 0.722364 0.332071
33 3 0.745078 0.665161 0.138155
34 3 0.769784 0.673573 0.254733
35 1 0.444838 0.808289 0.138566
36 1 0.468047 0.911462 0.0538851
37 4 0.516152 0.808737 0.34382
38 4 0.610496 0.712061 0.00862907
40 4 0.807609 0.64061 0.0743736
41 4 0.847166 0.635039 0.285318
42 2 0.401438 0.837021 0.219518
58 1 0.556095 0.24142 0.317238
44 2 0.388085 0.954901 0.0478361
45 1 0.517612 0.098959 0.156478
46 1 0.554371 0.00531122 0.0758272
47 2 0.482024 0.168411 0.0943075
48 2 0.440924 0.074235 0.204876
49 2 0.631235 0.961528 0.105435
72 2 0.625599 0.147304 0.481374
51 3 0.725526 0.196492 0.1695
52 3 0.807869 0.121618 0.107838
53 3 0.76604 0.315211 0.180702
54 3 0.91532 0.153854 0.0988465
55 3 0.879486 0.349765 0.174122
56 3 0.952739 0.262849 0.138317
57 1 0.610437 0.156138 0.22989
59 4 0.771946 0.0349947 0.0725515
60 4 0.729181 0.392358 0.217098
61 4 0.984945 0.111325 0.0456057
62 4 0.91102 0.430463 0.194464
63 4 0.0415808 0.287911 0.109495
39 4 0.714712 0.73071 0.421468
6 2 0.924248 0.735299 0.442859
25 2 0.296573 0.767585 0.043801
68 1 0.550073 0.206904 0.463146
71 2 0.470573 0.149357 0.476862
10 3 0.990062 0.600444 0.951125
11 3 0.0132455 0.806205 0.969926
12 3 0.975597 0.710487 0.905496
17 4 0.979488 0.528609 0.895338
18 4 0.00293649 0.892462 0.933875
19 4 0.942102 0.718826 0.818973
82 4 0.632004 0.520435 0.698592
70 2 0.434801 0.315527 0.555155
75 3 0.536889 0.494329 0.707378
84 4 0.448516 0.646896 0.605159
67 1 0.519532 0.292844 0.572011
43 2 0.478471 0.886722 0.963737
86 2 0.46636 0.240208 0.735712
87 2 0.732094 0.289084 0.767243
69 2 0.57078 0.370534 0.533909
73 3 0.519342 0.398563 0.777067
74 3 0.424276 0.412441 0.85863
88 2 0.646835 0.151344 0.726025
76 3 0.352308 0.500206 0.846657
77 3 0.442076 0.568778 0.661334
78 3 0.351841 0.558664 0.746591
79 1 0.544249 0.292657 0.714503
81 4 0.411981 0.328711 0.90619
83 4 0.288416 0.525493 0.901606
85 4 0.285664 0.636346 0.747236
80 1 0.65325 0.238502 0.759648
50 2 0.57942 0.0415315 0.991713
26 2 0.41704 0.680538 0.995561
ITEM: TIMESTEP
300
ITEM: NUMBER OF ATOMS
88
ITEM: BOX BOUNDS pp pp pp
-5.79054 5.79054
-5.79054 5.79054
-5.79054 5.79054
ITEM: ATOMS id type xs ys zs
1 1 0.0446315 0.73656 0.379214
2 1 0.911944 0.765031 0.380266
3 2 0.0697574 0.687202 0.455563
4 2 0.0900242 0.817223 0.389858
5 2 0.882455 0.841365 0.340219
65 2 0.441248 0.151483 0.379901
7 3 0.0429991 0.657465 0.149158
8 3 0.0354083 0.571543 0.0616832
9 3 0.0141102 0.769435 0.116105
13 1 0.0915971 0.649493 0.276052
14 1 0.224364 0.664432 0.279866
15 4 0.0548184 0.481739 0.0830938
16 4 0.0326415 0.845149 0.165856
20 2 0.0780501 0.556827 0.300364
21 2 0.255565 0.601898 0.339805
22 2 0.246464 0.755089 0.307019
23 1 0.294194 0.771374 0.094222
24 1 0.288359 0.650272 0.164971
66 2 0.423811 0.276667 0.305053
64 2 0.520277 0.0375432 0.243103
27 2 0.243458 0.583278 0.116137
28 2 0.371006 0.614904 0.181926
29 3 0.484171 0.818885 0.151338
30 3 0.536771 0.75116 0.238953
31 3 0.538994 0.808968 0.0444228
32 3 0.632502 0.675687 0.218574
33 3 0.65161 0.758655 0.0277622
34 3 0.694771 0.688363 0.118635
35 1 0.360113 0.874395 0.136326
36 1 0.323952 0.986899 0.064809
37 4 0.494245 0.745493 0.325449
71 2 0.594852 0.213858 0.482376
70 2 0.519171 0.424112 0.442484
41 4 0.772575 0.640967 0.103962
42 2 0.324186 0.899003 0.221967
58 1 0.489725 0.206501 0.333931
44 2 0.258511 0.0393008 0.106196
45 1 0.447922 0.161588 0.116334
46 1 0.431603 0.0629226 0.0401561
47 2 0.468668 0.241232 0.0622408
48 2 0.378226 0.19062 0.170806
49 2 0.522363 0.0255355 0.0214127
72 2 0.689093 0.262027 0.367089
51 3 0.666554 0.164102 0.191042
52 3 0.747099 0.0653878 0.184073
53 3 0.69607 0.278328 0.166378
54 3 0.862233 0.115149 0.16317
55 3 0.806759 0.306946 0.15088
56 3 0.871839 0.220498 0.121594
57 1 0.528314 0.135355 0.22055
59 4 0.721714 0.973984 0.208241
60 4 0.630928 0.342629 0.160283
61 4 0.932219 0.0488545 0.149112
62 4 0.83371 0.389553 0.118304
63 4 0.951507 0.242578 0.0721624
39 4 0.655304 0.618712 0.286089
6 2 0.880335 0.766045 0.46681
25 2 0.207885 0.813299 0.0991502
68 1 0.605185 0.26391 0.40332
69 2 0.662472 0.442637 0.388307
26 2 0.312347 0.753617 0.00276589
67 1 0.599695 0.394878 0.446899
11 3 0.945936 0.789172 0.022719
18 4 0.907958 0.875277 0.0189838
10 3 0.9859 0.601282 0.954814
40 4 0.68849 0.755073 0.942831
12 3 0.946877 0.713849 0.93056
17 4 0.977368 0.536855 0.890823
85 4 0.368908 0.484262 0.934068
19 4 0.908134 0.735153 0.848386
82 4 0.572661 0.614384 0.674252
50 2 0.404996 0.10596 0.963246
75 3 0.521613 0.542326 0.704463
84 4 0.461775 0.651456 0.825289
80 1 0.752408 0.444989 0.625511
43 2 0.286116 0.960491 0.978034
86 2 0.629633 0.309933 0.61362
87 2 0.814436 0.467652 0.557253
38 4 0.500281 0.855231 0.974823
73 3 0.527164 0.436498 0.654237
74 3 0.441924 0.354923 0.669783
88 2 0.795592 0.362275 0.649555
76 3 0.393894 0.356837 0.790601
77 3 0.468258 0.561053 0.803396
78 3 0.41115 0.465877 0.849414
79 1 0.631702 0.405189 0.579717
81 4 0.432454 0.263866 0.629626
83 4 0.36015 0.282079 0.827346
ITEM: TIMESTEP
400
ITEM: NUMBER OF ATOMS
88
ITEM: BOX BOUNDS pp pp pp
-5.79054 5.79054
-5.79054 5.79054
-5.79054 5.79054
ITEM: ATOMS id type xs ys zs
1 1 0.959219 0.647343 0.384904
2 1 0.905366 0.758828 0.42385
3 2 0.900479 0.574242 0.367628
4 2 0.00610087 0.61808 0.464262
5 2 0.954438 0.832968 0.405731
65 2 0.462667 0.218233 0.420545
7 3 0.975194 0.650358 0.173108
8 3 0.964531 0.549813 0.102928
9 3 0.93672 0.75932 0.134071
13 1 0.0520592 0.652219 0.282119
14 1 0.138875 0.755994 0.281709
15 4 1.01352 0.471926 0.124512
16 4 0.943103 0.832864 0.193205
20 2 0.0974137 0.568429 0.278696
21 2 0.175391 0.760043 0.366633
22 2 0.108196 0.846974 0.268877
23 1 0.234975 0.819027 0.0958253
24 1 0.244696 0.746642 0.208552
66 2 0.429819 0.335186 0.35676
64 2 0.474018 0.109541 0.264198
27 2 0.262269 0.659926 0.18386
28 2 0.320685 0.776484 0.250855
29 3 0.44694 0.854143 0.0659676
30 3 0.525523 0.826023 0.154399
49 2 0.430185 0.134224 0.0088444
32 3 0.621555 0.76032 0.130652
67 1 0.592687 0.454235 0.420354
34 3 0.632369 0.726499 0.0116879
35 1 0.329587 0.90777 0.0964689
36 1 0.28811 0.012372 0.0208988
37 4 0.50324 0.853465 0.244506
71 2 0.685395 0.26257 0.397689
70 2 0.50598 0.468488 0.427143
41 4 0.692676 0.661723 -0.0145643
42 2 0.337957 0.948593 0.183407
58 1 0.491961 0.27228 0.34981
44 2 0.203395 0.0186274 0.0600497
45 1 0.363165 0.198973 0.158229
46 1 0.340397 0.149511 0.0354361
47 2 0.350362 0.291792 0.139086
48 2 0.292968 0.174171 0.221311
11 3 0.914777 0.776218 0.0227066
72 2 0.651659 0.355274 0.278806
51 3 0.606626 0.172272 0.179057
52 3 0.672081 0.0827121 0.22824
53 3 0.639113 0.219608 0.0699257
54 3 0.775033 0.0637843 0.179951
55 3 0.75509 0.203927 0.0369063
56 3 0.817759 0.129003 0.0967197
57 1 0.486922 0.199245 0.234783
59 4 0.644593 0.030807 0.300971
60 4 0.584117 0.269848 0.0229472
61 4 0.815844 0.984309 0.204031
69 2 0.599176 0.521963 0.35044
63 4 0.89718 0.0824841 0.0786809
39 4 0.678475 0.732297 0.194688
50 2 0.307885 0.208382 -0.0330313
25 2 0.154855 0.859263 0.0725458
68 1 0.616083 0.330801 0.356121
26 2 0.250712 0.76753 0.0213333
10 3 0.931655 0.570872 0.985509
40 4 0.576738 0.741548 0.838036
12 3 0.91144 0.683822 0.946714
17 4 0.93701 0.504602 0.921916
85 4 0.360148 0.364311 0.840417
19 4 0.895978 0.70536 0.858951
82 4 0.646978 0.556838 0.734662
18 4 0.897107 0.864977 0.998844
75 3 0.592913 0.489195 0.729846
84 4 0.503431 0.538122 0.880266
43 2 0.278383 -0.0234731 0.934071
83 4 0.405454 0.233785 0.712199
86 2 0.739466 0.53219 0.540562
87 2 0.611062 0.677282 0.618151
38 4 0.414833 0.857038 0.883676
73 3 0.617759 0.41259 0.639063
74 3 0.548103 0.309948 0.642823
88 2 0.486162 0.634991 0.514025
76 3 0.459115 0.304261 0.716207
77 3 0.512132 0.475403 0.810585
78 3 0.439527 0.379776 0.804441
79 1 0.642822 0.499678 0.530958
81 4 0.560346 0.252163 0.562566
33 3 0.564907 0.765924 0.926059
31 3 0.472109 0.830947 0.950372
6 2 0.920417 0.772609 0.518487
80 1 0.580771 0.628123 0.541094
62 4 0.800253 0.253506 0.972978
ITEM: TIMESTEP
500
ITEM: NUMBER OF ATOMS
88
ITEM: BOX BOUNDS pp pp pp
-5.79054 5.79054
-5.79054 5.79054
-5.79054 5.79054
ITEM: ATOMS id type xs ys zs
1 1 0.91356 0.658156 0.372603
2 1 0.890309 0.737864 0.47372
3 2 0.829186 0.656152 0.322658
4 2 0.930017 0.571416 0.41421
61 4 0.778139 0.972526 0.241655
65 2 0.403102 0.276494 0.352943
7 3 0.973291 0.685352 0.15933
8 3 0.981443 0.573716 0.115007
9 3 0.910538 0.767977 0.0935108
13 1 0.0153945 0.692931 0.287583
14 1 0.0899141 0.789159 0.333994
15 4 1.0409 0.512386 0.157271
16 4 0.899897 0.858534 0.120896
20 2 0.0790713 0.624501 0.300674
21 2 0.128169 0.773016 0.416322
22 2 0.0386377 0.866328 0.330457
23 1 0.173327 0.892538 0.155309
24 1 0.19154 0.796759 0.248449
66 2 0.39589 0.384877 0.233214
64 2 0.431142 0.140236 0.224176
27 2 0.209195 0.710357 0.21161
28 2 0.268681 0.823878 0.302268
29 3 0.363748 0.882896 0.0511253
30 3 0.481949 0.868261 0.0783096
26 2 0.127568 0.86019 0.08014
32 3 0.567378 0.83772 -0.00334728
67 1 0.477653 0.498758 0.388681
25 2 0.126964 0.952357 0.208843
35 1 0.278727 0.960278 0.122286
36 1 0.239165 0.0680617 0.0493324
37 4 0.514931 0.900694 0.161613
71 2 0.613579 0.363305 0.386655
70 2 0.392739 0.463387 0.405453
68 1 0.550477 0.397315 0.326399
42 2 0.323692 0.995553 0.198309
58 1 0.44744 0.321436 0.277331
44 2 0.167834 0.116207 0.080216
45 1 0.376974 0.255237 0.0974779
46 1 0.343918 0.150525 0.0181226
47 2 0.384429 0.344833 0.0556532
48 2 0.294696 0.257378 0.148951
39 4 0.652701 0.835185 0.0313957
72 2 0.600352 0.416955 0.254985
51 3 0.581284 0.178465 0.156626
52 3 0.631894 0.0911534 0.231011
53 3 0.618226 0.194031 0.0467976
54 3 0.723302 0.023312 0.183255
63 4 0.794339 0.973654 0.00671557
56 3 0.738881 0.0283597 0.0555767
57 1 0.469411 0.220806 0.183384
59 4 0.601511 0.0817371 0.318934
69 2 0.47753 0.568728 0.321294
49 2 0.409638 0.102251 -0.0118316
60 4 0.579245 0.26581 -0.0113001
10 3 0.923784 0.542428 0.0147555
86 2 0.631445 0.582223 0.478608
87 2 0.472702 0.702456 0.482475
50 2 0.307562 0.181309 0.93103
40 4 0.39778 0.752572 0.770355
12 3 0.888473 0.628347 0.941252
17 4 0.923225 0.454583 0.98758
85 4 0.619681 0.235245 0.838953
19 4 0.882343 0.602367 0.85482
82 4 0.658721 0.559156 0.705954
18 4 0.866112 0.81156 0.91391
75 3 0.62123 0.479819 0.694672
84 4 0.701174 0.437517 0.866802
43 2 0.219575 0.0399867 0.964337
83 4 0.541653 0.160709 0.665031
11 3 0.884646 0.74362 0.974943
5 2 0.83723 0.697268 0.533316
38 4 0.25186 0.840582 0.906344
73 3 0.573444 0.447161 0.592929
74 3 0.527746 0.337557 0.584255
88 2 0.401582 0.604849 0.590595
76 3 0.553959 0.25387 0.678114
77 3 0.643173 0.406156 0.792925
78 3 0.591099 0.298183 0.78571
79 1 0.54562 0.53354 0.506645
81 4 0.46691 0.306679 0.523854
33 3 0.416734 0.786394 0.857218
31 3 0.338095 0.839533 0.936479
6 2 0.959217 0.778742 0.532931
80 1 0.485823 0.63687 0.548941
62 4 0.72704 0.120915 0.908729
55 3 0.698035 0.123943 0.995502
41 4 0.596159 0.761144 0.826965
34 3 0.53408 0.798359 0.889473
ITEM: TIMESTEP
600
ITEM: NUMBER OF ATOMS
88
ITEM: BOX BOUNDS pp pp pp
-5.79054 5.79054
-5.79054 5.79054
-5.79054 5.79054
ITEM: ATOMS id type xs ys zs
1 1 0.852018 0.674715 0.364183
2 1 0.863775 0.68977 0.49673
3 2 0.798243 0.74829 0.326552
4 2 0.806305 0.594202 0.336043
61 4 0.633025 0.970315 0.320691
65 2 0.347006 0.298419 0.303069
7 3 0.953463 0.662049 0.175454
8 3 1.00178 0.560237 0.134694
9 3 0.884663 0.724722 0.101278
13 1 0.968018 0.688504 0.29931
14 1 0.030772 0.807304 0.329606
15 4 0.0647277 0.514555 0.187414
16 4 0.828614 0.792507 0.142746
20 2 0.0226025 0.618919 0.339373
21 2 0.0645089 0.78747 0.410041
22 2 0.97896 0.880622 0.344582
23 1 0.150038 0.9617 0.195289
24 1 0.141996 0.839751 0.250489
66 2 0.307556 0.390421 0.183268
64 2 0.375148 0.188942 0.188098
27 2 0.136808 0.786472 0.175269
28 2 0.223421 0.806888 0.291846
29 3 0.266335 0.919043 0.00475307
30 3 0.381224 0.885104 -0.00640578
26 2 0.0597508 0.976219 0.164991
87 2 0.491125 0.746308 0.526094
67 1 0.413225 0.502746 0.388601
25 2 0.169358 0.0191139 0.268475
35 1 0.239745 0.99733 0.101233
36 1 0.231153 0.114486 0.0338585
37 4 0.451458 0.914479 0.0474924
71 2 0.547198 0.404877 0.309951
70 2 0.341924 0.450864 0.419519
68 1 0.471112 0.43857 0.287265
42 2 0.323679 1.01454 0.145723
58 1 0.383652 0.356225 0.226537
44 2 0.206951 0.176271 0.0994896
45 1 0.375405 0.268159 0.0309301
55 3 0.759116 0.16086 0.108217
60 4 0.640273 0.294968 0.0296662
79 1 0.501584 0.561709 0.474692
86 2 0.56726 0.603438 0.42015
72 2 0.493175 0.49828 0.21612
51 3 0.542382 0.189412 0.147946
52 3 0.548949 0.106209 0.226143
53 3 0.650283 0.215876 0.0890465
54 3 0.652732 0.0413872 0.252342
63 4 0.828083 0.00945824 0.189663
56 3 0.754265 0.0589377 0.182854
57 1 0.424551 0.255287 0.150766
59 4 0.476151 0.0601745 0.272415
69 2 0.368834 0.574817 0.353591
10 3 0.970696 0.515708 0.0248196
62 4 0.835232 0.191448 0.059629
50 2 0.314575 0.184724 0.88746
40 4 0.174846 0.796631 0.750428
12 3 0.926024 0.599515 0.948071
17 4 0.996453 0.433562 0.987302
85 4 0.730608 0.196513 0.582615
19 4 0.930207 0.584981 0.857517
82 4 0.706422 0.545358 0.551808
18 4 0.86462 0.771537 0.920977
75 3 0.68209 0.465051 0.557693
84 4 0.830928 0.381344 0.636443
49 2 0.424126 0.107646 0.967166
83 4 0.536552 0.159604 0.558338
47 2 0.445617 0.301692 0.9779
5 2 0.828459 0.762741 0.541326
38 4 0.108578 0.921432 0.924217
73 3 0.55563 0.456896 0.546219
74 3 0.490018 0.357118 0.568539
88 2 0.364381 0.658635 0.572822
76 3 0.55635 0.251546 0.577827
77 3 0.740584 0.377039 0.600767
78 3 0.678717 0.271973 0.594274
34 3 0.343764 0.780136 0.820059
81 4 0.401369 0.358484 0.562915
33 3 0.230969 0.814899 0.824989
31 3 0.192247 0.885571 0.918095
6 2 0.853481 0.60401 0.542722
80 1 0.45954 0.664908 0.554051
46 1 0.337849 0.152264 0.971091
41 4 0.379857 0.733154 0.749676
32 3 0.419983 0.820072 0.90688
39 4 0.509634 0.798246 0.90778
48 2 0.325619 0.348968 1.03243
11 3 0.888958 0.708085 0.983996
43 2 0.168844 0.128114 0.965986
ITEM: TIMESTEP
700
ITEM: NUMBER OF ATOMS
88
ITEM: BOX BOUNDS pp pp pp
-5.79054 5.79054
-5.79054 5.79054
-5.79054 5.79054
ITEM: ATOMS id type xs ys zs
1 1 0.882976 0.711096 0.378853
62 4 0.77794 0.295639 0.169171
3 2 0.811823 0.773124 0.369344
4 2 0.848449 0.624967 0.351912
61 4 0.6111 0.0157324 0.363657
65 2 0.334909 0.336861 0.321713
7 3 0.956593 0.658077 0.177633
8 3 0.0315579 0.57161 0.154347
9 3 0.869754 0.688479 0.102579
13 1 0.967773 0.736644 0.281019
14 1 0.976375 0.864441 0.24946
15 4 0.0867217 0.542628 0.221856
16 4 0.802674 0.754932 0.129635
20 2 0.050137 0.717345 0.325458
21 2 0.969411 0.90824 0.329662
22 2 0.900909 0.890266 0.197251
23 1 0.0885802 0.00323187 0.132082
24 1 0.101084 0.891224 0.20336
66 2 0.247059 0.390883 0.212069
64 2 0.326117 0.203718 0.184352
27 2 0.135006 0.826323 0.145969
28 2 0.158703 0.902755 0.277256
82 4 0.672132 0.477214 0.318481
10 3 0.0294109 0.515555 0.0484406
26 2 -0.00100543 0.0270244 0.0978445
69 2 0.498769 0.643722 0.289498
67 1 0.445381 0.579661 0.313378
25 2 0.098106 0.0703596 0.199545
35 1 0.18417 0.0171611 0.0333486
36 1 0.190382 0.155009 0.0108135
73 3 0.564452 0.434358 0.4603
71 2 0.500375 0.435184 0.232589
70 2 0.357184 0.62308 0.32762
68 1 0.434633 0.486213 0.218454
42 2 0.270651 1.00833 0.074405
58 1 0.344196 0.38062 0.231318
44 2 0.172561 0.197852 0.0884068
45 1 0.390028 0.263834 0.00973737
55 3 0.700435 0.262225 0.210957
60 4 0.594359 0.321615 0.0717768
79 1 0.48173 0.539676 0.435545
86 2 0.542017 0.610002 0.454357
72 2 0.459442 0.510535 0.123821
51 3 0.495352 0.23051 0.213262
52 3 0.506202 0.139943 0.292352
53 3 0.595295 0.268582 0.158777
54 3 0.602184 0.100915 0.316612
63 4 0.77851 0.145708 0.324998
56 3 0.700785 0.168447 0.291218
57 1 0.384753 0.268333 0.1594
59 4 0.422662 0.0995297 0.304062
77 3 0.752055 0.341157 0.431539
75 3 0.666374 0.431711 0.40602
17 4 0.0852472 0.440818 0.0320305
84 4 0.833554 0.343727 0.378288
87 2 0.344197 0.652516 0.492091
50 2 0.281627 0.232054 0.86341
40 4 0.961507 0.800876 0.752181
12 3 0.948859 0.556608 0.967642
43 2 0.120567 0.181417 0.950182
85 4 0.781305 0.168222 0.525868
19 4 0.939741 0.514584 0.886289
48 2 0.406794 0.347569 0.985179
18 4 0.831674 0.690667 0.917611
30 3 0.255347 0.849773 0.903199
11 3 0.87671 0.652072 0.988848
49 2 0.361921 0.113482 0.910009
83 4 0.600102 0.189661 0.614608
47 2 0.475357 0.227802 0.989675
5 2 1.00836 0.640611 0.513674
38 4 0.983629 0.963116 0.86745
39 4 0.309151 0.678812 0.853395
74 3 0.538189 0.341985 0.538765
88 2 0.335263 0.50387 0.556783
76 3 0.61716 0.255784 0.553325
32 3 0.235559 0.73971 0.852311
78 3 0.720664 0.244296 0.505634
34 3 0.122271 0.722652 0.806708
81 4 0.452606 0.353765 0.586589
33 3 0.0433149 0.813873 0.799148
31 3 0.0578381 0.909627 0.866433
6 2 0.874621 0.702247 0.580519
80 1 0.393396 0.583186 0.522395
46 1 0.30449 0.188232 0.943886
41 4 0.101852 0.645557 0.761336
29 3 0.166635 0.930708 0.924438
37 4 0.339188 0.864479 0.944611
2 1 0.937706 0.711789 0.507198
ITEM: TIMESTEP
800
ITEM: NUMBER OF ATOMS
88
ITEM: BOX BOUNDS pp pp pp
-5.79054 5.79054
-5.79054 5.79054
-5.79054 5.79054
ITEM: ATOMS id type xs ys zs
1 1 0.897711 0.744232 0.357588
62 4 0.741923 0.142112 0.0736625
3 2 0.816648 0.782631 0.34404
4 2 0.880263 0.653861 0.364524
61 4 0.566665 0.0372182 0.392209
65 2 0.348819 0.336809 0.311941
7 3 0.986846 0.674738 0.16073
8 3 0.0809019 0.603919 0.120186
9 3 0.875256 0.655283 0.130058
13 1 0.993285 0.764855 0.265411
14 1 0.981765 0.897553 0.24138
15 4 0.166274 0.61573 0.155687
16 4 0.804713 0.700599 0.176677
20 2 0.0795889 0.759372 0.31144
21 2 0.0359087 0.943223 0.301886
22 2 0.890565 0.932654 0.24508
23 1 0.0651895 0.0446079 0.0982721
24 1 0.0133096 0.924037 0.117149
66 2 0.23163 0.409937 0.209707
64 2 0.284066 0.184333 0.166685
27 2 0.940367 0.917836 0.0625469
28 2 0.0675244 0.861518 0.0839839
82 4 0.667158 0.6107 0.359242
10 3 0.0594062 0.517876 0.0435971
26 2 0.994654 0.108834 0.101189
69 2 0.493475 0.641566 0.265077
67 1 0.421909 0.590323 0.290653
25 2 0.130312 0.0570537 0.163784
17 4 0.132201 0.468113 0.00872451
84 4 0.847505 0.517554 0.454278
73 3 0.553031 0.457175 0.417608
71 2 0.493832 0.462104 0.172003
70 2 0.331264 0.626995 0.281372
68 1 0.41444 0.48184 0.199204
42 2 0.216586 0.983466 0.00536773
58 1 0.333112 0.372861 0.21782
88 2 0.279591 0.583943 0.475722
45 1 0.319183 0.293933 0.0289474
55 3 0.66317 0.147574 0.127851
81 4 0.472918 0.289091 0.464105
79 1 0.444159 0.531398 0.411478
86 2 0.448809 0.603012 0.480925
72 2 0.387735 0.516195 0.119671
51 3 0.46303 0.19303 0.163607
52 3 0.468191 0.156276 0.2745
53 3 0.561632 0.194229 0.0904485
54 3 0.56108 0.0895952 0.31464
63 4 0.736993 0.0703969 0.25962
56 3 0.651884 0.097132 0.236958
57 1 0.34557 0.252594 0.14566
59 4 0.394676 0.134533 0.326903
77 3 0.765229 0.47015 0.455623
75 3 0.664946 0.519036 0.408347
48 2 0.249207 0.351763 0.0192263
11 3 0.846284 0.560139 0.0623335
74 3 0.54943 0.348665 0.462882
80 1 0.326138 0.503124 0.448469
12 3 0.940946 0.494823 0.0237919
18 4 0.762538 0.522838 0.0679088
47 2 0.391983 0.337847 -0.0098563
2 1 0.948317 0.797157 0.476973
6 2 -0.0575076 0.891782 0.478056
50 2 0.346703 0.192829 0.867892
40 4 0.801043 0.893064 0.777894
29 3 0.066771 0.953537 0.894162
43 2 0.18313 0.122802 0.835132
85 4 0.838525 0.343341 0.568939
19 4 0.913274 0.416649 0.98439
87 2 0.32257 0.453504 0.523581
41 4 0.902321 0.708171 0.749553
30 3 0.114401 0.841946 0.876729
36 1 0.175546 0.140877 0.928301
49 2 0.361785 0.117415 0.98664
83 4 0.647209 0.230409 0.584372
46 1 0.3049 0.184679 0.952335
44 2 0.112601 0.198737 0.918712
38 4 0.91345 0.0536092 0.882668
39 4 0.0831297 0.663551 0.825512
5 2 0.879797 0.789684 0.551051
37 4 0.194696 0.81122 0.915358
76 3 0.644474 0.312972 0.53814
32 3 0.0541618 0.756043 0.825816
78 3 0.752964 0.374654 0.527917
34 3 0.95001 0.782829 0.779486
35 1 0.133059 0.0276117 0.980534
33 3 0.893727 0.886902 0.799351
31 3 0.956005 0.976082 0.854695
60 4 0.566453 0.234583 1.00002
ITEM: TIMESTEP
900
ITEM: NUMBER OF ATOMS
88
ITEM: BOX BOUNDS pp pp pp
-5.79054 5.79054
-5.79054 5.79054
-5.79054 5.79054
ITEM: ATOMS id type xs ys zs
1 1 0.974218 0.79698 0.406025
19 4 0.928706 0.431344 0.00678285
3 2 0.907477 0.73994 0.409065
4 2 0.0439404 0.74687 0.443982
61 4 0.554063 0.0343116 0.351518
65 2 0.295336 0.285883 0.299854
7 3 0.972129 0.695506 0.213131
8 3 0.0530036 0.655149 0.137568
9 3 0.868587 0.623708 0.220685
13 1 0.99942 0.812118 0.273371
14 1 0.948845 0.926658 0.208608
15 4 0.140599 0.684584 0.144943
16 4 0.795775 0.653962 0.276666
20 2 0.0979005 0.813154 0.274281
21 2 0.975837 0.00520993 0.256307
22 2 0.852349 0.93217 0.210859
23 1 0.0992802 0.973089 0.0216691
24 1 0.974604 0.941426 0.0763544
66 2 0.2231 0.378937 0.194203
64 2 0.266081 0.163192 0.13991
27 2 0.918146 0.00728789 0.043291
28 2 0.937412 0.866011 0.0394745
82 4 0.580642 0.69061 0.47254
10 3 0.0337481 0.578648 0.0487222
26 2 0.144134 0.039677 0.0639069
69 2 0.511137 0.581422 0.237214
67 1 0.423894 0.535227 0.257612
25 2 0.154833 0.90041 0.0362688
12 3 0.938196 0.505098 0.0612047
5 2 0.959221 0.999429 0.427374
73 3 0.525601 0.51936 0.461274
71 2 0.498047 0.367586 0.272948
70 2 0.35781 0.58013 0.200378
68 1 0.422956 0.404687 0.220496
2 1 0.953328 0.913101 0.482503
58 1 0.310048 0.336804 0.212433
88 2 0.218362 0.528682 0.385454
80 1 0.298334 0.50713 0.433272
55 3 0.591073 0.0339008 0.0702428
74 3 0.543088 0.402791 0.459788
79 1 0.414095 0.559366 0.38968
86 2 0.411481 0.655709 0.410514
72 2 0.444623 0.412385 0.13828
51 3 0.431832 0.165747 0.12542
52 3 0.455693 0.120213 0.228199
53 3 0.523104 0.135812 0.0499731
54 3 0.537816 0.0475752 0.261731
63 4 0.66898 0.930279 0.203277
56 3 0.609151 0.00113137 0.182977
57 1 0.317109 0.241562 0.109507
59 4 0.394635 0.134833 0.29098
48 2 0.153733 0.259015 0.0160691
75 3 0.613656 0.599502 0.482525
18 4 0.798914 0.452657 0.163232
11 3 0.857803 0.52323 0.149018
83 4 0.671787 0.276906 0.433061
76 3 0.656297 0.367071 0.454309
81 4 0.46507 0.346656 0.442154
78 3 0.750515 0.438023 0.494598
85 4 0.846828 0.413203 0.476536
84 4 0.79814 0.62186 0.495548
50 2 0.287069 0.235071 0.800123
40 4 0.716934 0.045838 0.747596
29 3 0.99112 0.963795 0.827873
43 2 0.141846 0.138573 0.740837
6 2 0.0116848 0.894351 0.555446
60 4 0.5171 0.165671 0.95868
87 2 0.284514 0.537533 0.521914
41 4 0.710808 0.842823 0.718305
30 3 0.978795 0.846882 0.798369
36 1 0.141532 0.130025 0.837776
49 2 0.323368 0.133394 0.897184
31 3 0.89622 0.0409516 0.80888
46 1 0.259229 0.191684 0.878803
44 2 0.0708507 0.171352 0.867001
38 4 0.891129 0.129923 0.835362
39 4 0.850407 0.718347 0.738715
33 3 0.799021 0.998978 0.759439
37 4 0.0444068 0.783337 0.812499
42 2 0.161963 0.927903 0.857447
32 3 0.877951 0.807319 0.751917
47 2 0.255556 0.351252 0.95902
34 3 0.791921 0.883936 0.739238
35 1 0.103 0.996945 0.885507
45 1 0.242021 0.272426 0.990364
17 4 0.103503 0.55244 0.985772
62 4 0.619443 0.981838 0.996605
77 3 0.73107 0.560477 0.509294
ITEM: TIMESTEP
1000
ITEM: NUMBER OF ATOMS
88
ITEM: BOX BOUNDS pp pp pp
-5.79054 5.79054
-5.79054 5.79054
-5.79054 5.79054
ITEM: ATOMS id type xs ys zs
1 1 0.0330706 0.904534 0.372981
19 4 0.914374 0.426302 0.110917
3 2 0.953736 0.889495 0.426998
4 2 0.0914553 0.847473 0.418088
61 4 0.468514 0.906636 0.269152
65 2 0.302627 0.275083 0.270004
7 3 -0.00589411 0.737027 0.221318
8 3 0.0564647 0.683699 0.135395