ITEM: TIMESTEP
0
ITEM: NUMBER OF ATOMS
110
ITEM: BOX BOUNDS pp pp pp
-5.79054 5.79054
-5.79054 5.79054
-5.79054 5.79054
ITEM: ATOMS id type xs ys zs
1 1 0.639261 0.0525927 0.413917
2 1 0.515506 0.0133133 0.384027
4 2 0.647977 0.144377 0.39419
5 2 0.495025 0.0284343 0.293285
6 2 0.502541 0.922097 0.403908
7 3 0.738981 0.85717 0.394184
8 3 0.798503 0.830501 0.495799
9 3 0.683056 0.767933 0.33466
11 3 0.688418 0.654575 0.374765
12 3 0.749054 0.628961 0.475291
13 1 0.73593 0.982805 0.352288
14 1 0.731882 0.993178 0.218373
16 4 0.634461 0.785527 0.256478
18 4 0.644803 0.586052 0.327689
20 2 0.817722 0.0213555 0.379224
21 2 0.648519 0.963353 0.186211
22 2 0.796394 0.935007 0.181373
23 1 0.877923 0.160388 0.190606
24 1 0.753153 0.115902 0.169603
25 2 0.936266 0.0873517 0.20246
26 2 0.879391 0.207853 0.272155
27 2 0.690619 0.177367 0.204258
28 2 0.735669 0.110976 0.0772646
29 3 0.0378479 0.299726 0.120776
30 3 0.0532823 0.415469 0.0900214
31 3 0.130234 0.239921 0.170654
32 3 0.158349 0.470774 0.10958
33 3 0.235779 0.29484 0.189085
34 3 0.249787 0.410431 0.159086
35 1 0.923325 0.240307 0.0919976
37 4 0.983424 0.462907 0.0489969
38 4 0.121409 0.149521 0.193967
39 4 0.169206 0.560749 0.08511
40 4 0.307229 0.247339 0.227241
41 4 0.33203 0.453269 0.173737
42 2 0.859136 0.308979 0.0828612
49 2 0.0767681 0.0670266 0.0123169
50 2 0.939733 0.00355633 0.0299141
53 3 0.98586 0.75547 0.0342689
55 3 0.9067 0.692213 0.0991703
56 3 0.794372 0.676962 0.0589054
60 4 0.0729128 0.767745 0.0671562
62 4 0.932379 0.655166 0.181556
63 4 0.732577 0.6277 0.109594
80 1 0.188931 0.484304 0.498945
87 2 0.241011 0.535099 0.438744
88 2 0.100047 0.488214 0.467312
89 1 0.35937 0.342587 0.496128
90 1 0.227045 0.356263 0.496411
91 2 0.397358 0.385078 0.420955
92 2 0.383134 0.251375 0.493901
94 2 0.192398 0.315917 0.418625
101 1 0.62402 0.315234 0.495564
102 1 0.756204 0.301573 0.495281
103 4 0.46596 0.480073 0.444328
109 2 0.782924 0.245608 0.424241
110 2 0.798111 0.385361 0.484325
3 2 0.650997 0.0448057 0.507219
10 3 0.803169 0.717188 0.536347
15 4 0.841336 0.898624 0.544183
17 4 0.848635 0.697298 0.615971
19 4 0.752724 0.54059 0.506944
36 1 0.93204 0.180391 0.971735
43 2 0.845857 0.171347 0.934587
44 2 0.979789 0.236733 0.912888
45 1 0.999783 0.00584922 0.853437
46 1 0.990547 0.0604374 0.974777
47 2 0.916296 0.0105528 0.809739
48 2 0.0611118 0.0558491 0.801893
51 3 0.953506 0.804422 0.928779
52 3 0.840286 0.789347 0.889468
54 3 0.761112 0.725942 0.954289
57 1 0.0398123 0.878294 0.86104
58 1 0.0633036 0.829886 0.738702
59 4 0.812727 0.828215 0.808618
61 4 0.672993 0.71563 0.923556
64 2 0.122288 0.877939 0.907032
65 2 0.121595 0.888186 0.692677
66 2 0.982997 0.827185 0.689695
67 1 0.134154 0.658823 0.61983
68 1 0.118399 0.708432 0.742667
69 2 0.0493802 0.651635 0.579078
70 2 0.184666 0.71874 0.567286
71 2 0.201873 0.713995 0.786348
72 2 0.0642268 0.649639 0.792851
73 3 0.314711 0.543309 0.671494
74 3 0.343619 0.475948 0.767413
75 3 0.398746 0.614868 0.622537
76 3 0.454942 0.479353 0.813025
77 3 0.509691 0.619075 0.668816
78 3 0.53816 0.550773 0.763573
79 1 0.192565 0.538325 0.621581
81 4 0.279446 0.419801 0.806711
82 4 0.378164 0.667758 0.547806
83 4 0.476817 0.426129 0.887219
84 4 0.573944 0.675793 0.630686
85 4 0.625196 0.553003 0.798691
86 2 0.139759 0.483385 0.677353
93 2 0.190117 0.309843 0.569812
95 3 0.58077 0.411292 0.573599
96 3 0.498604 0.488905 0.531927
97 3 0.621651 0.42293 0.686478
98 3 0.458064 0.577894 0.602115
99 3 0.581535 0.512224 0.756529
100 3 0.499753 0.589769 0.714354
104 4 0.685372 0.362699 0.720077
105 4 0.394025 0.638149 0.569184
106 4 0.614134 0.521393 0.844096
107 4 0.468452 0.65941 0.769
108 2 0.582038 0.233519 0.517024
ITEM: TIMESTEP
100
ITEM: NUMBER OF ATOMS
110
ITEM: BOX BOUNDS pp pp pp
-5.79054 5.79054
-5.79054 5.79054
-5.79054 5.79054
ITEM: ATOMS id type xs ys zs
1 1 0.525274 0.878876 0.293064
2 1 0.512653 0.748484 0.306402
4 2 0.482271 0.912924 0.21833
5 2 0.537898 0.679312 0.240408
6 2 0.536864 0.710998 0.392381
7 3 0.735795 0.815345 0.359699
8 3 0.77002 0.826874 0.47047
9 3 0.752572 0.708399 0.300381
11 3 0.792753 0.611066 0.352785
12 3 0.812469 0.623699 0.471708
13 1 0.659173 0.918804 0.314378
14 1 0.720366 0.951112 0.190909
16 4 0.715886 0.701261 0.215757
18 4 0.789259 0.532797 0.302847
20 2 0.654347 0.996095 0.371339
21 2 0.657122 0.921382 0.129743
22 2 0.795143 0.897597 0.178483
23 1 0.864053 0.14511 0.17495
24 1 0.757615 0.0708029 0.132998
25 2 0.92688 0.0758176 0.198162
26 2 0.852735 0.1907 0.2602
27 2 0.680084 0.124868 0.135
28 2 0.765821 0.0468221 0.0412282
29 3 0.0322848 0.298 0.134907
30 3 0.0511921 0.413005 0.107399
31 3 0.131093 0.235829 0.172796
32 3 0.154598 0.467468 0.129151
33 3 0.240105 0.28666 0.178114
34 3 0.254087 0.404637 0.160317
35 1 0.927192 0.2282 0.0877161
37 4 0.987466 0.464553 0.0643861
38 4 0.124501 0.144199 0.189063
39 4 0.149559 0.560607 0.122044
40 4 0.313119 0.236464 0.208389
41 4 0.337343 0.444224 0.178509
42 2 0.859828 0.290025 0.0748631
102 1 0.553421 0.224695 0.354216
85 4 0.248203 0.916637 0.00565038
101 1 0.488784 0.241921 0.486883
55 3 0.940344 0.696943 0.0756975
56 3 0.82583 0.673633 0.0473439
60 4 0.0691289 0.808445 0.0177111
62 4 0.985886 0.66137 0.150315
63 4 0.78355 0.601542 0.0895955
109 2 0.643439 0.236654 0.355135
83 4 0.244156 0.734534 0.080039
110 2 0.503174 0.249581 0.279257
89 1 0.360479 0.286652 0.48278
3 2 0.463623 0.910971 0.359442
91 2 0.352918 0.329908 0.402259
92 2 0.287231 0.231532 0.48017
61 4 0.666667 0.764657 0.0111862
90 1 0.288686 0.385145 0.557497
10 3 0.798944 0.729282 0.528249
15 4 0.778402 0.915698 0.502455
17 4 0.784602 0.726785 0.6192
94 2 0.210716 0.415468 0.505412
36 1 0.953506 0.182082 0.956499
43 2 0.867096 0.181575 0.915869
44 2 0.00852063 0.247669 0.920938
45 1 0.00405602 0.998947 0.803031
46 1 0.00737609 0.0585334 0.930214
47 2 0.926754 0.0128533 0.755238
48 2 0.0742843 0.0358136 0.751426
51 3 0.927181 0.818885 0.905829
52 3 0.807724 0.837932 0.922303
54 3 0.756673 0.760647 0.99824
57 1 0.00840997 0.862922 0.812137
58 1 0.996684 0.771627 0.71007
59 4 0.759455 0.90568 0.87967
49 2 0.0914126 0.0509401 0.974554
64 2 0.0933969 0.870583 0.848642
65 2 0.014037 0.808948 0.627342
66 2 0.910867 0.733943 0.714899
67 1 0.122844 0.586376 0.643587
68 1 0.0707503 0.66598 0.74466
69 2 0.0732402 0.517997 0.591497
70 2 0.134059 0.645492 0.566378
71 2 0.138203 0.704293 0.787098
72 2 0.0297145 0.601469 0.806468
73 3 0.309047 0.636635 0.793874
74 3 0.285067 0.636657 0.91678
75 3 0.343725 0.764047 0.771563
76 3 0.263601 0.728313 0.988102
77 3 0.31409 0.865312 0.832235
78 3 0.273789 0.847383 0.943825
79 1 0.249037 0.540101 0.701352
81 4 0.257348 0.552947 0.943944
82 4 0.356842 0.766028 0.67533
88 2 0.370439 0.574904 0.558535
84 4 0.321865 0.954444 0.806995
96 3 0.614784 0.41844 0.596839
86 2 0.210209 0.464979 0.744838
93 2 0.255865 0.344837 0.631076
95 3 0.546298 0.313818 0.605519
107 4 0.567672 0.519814 0.841066
97 3 0.517157 0.26571 0.704223
98 3 0.65015 0.494528 0.686604
99 3 0.536814 0.352069 0.785301
100 3 0.587485 0.460166 0.777179
104 4 0.458505 0.196001 0.703885
105 4 0.706035 0.578388 0.675915
106 4 0.513186 0.313552 0.862618
80 1 0.333154 0.502987 0.606057
87 2 0.384244 0.466776 0.678687
19 4 0.850394 0.554384 0.521545
50 2 0.956387 0.00812971 0.989614
108 2 0.479326 0.158378 0.533906
53 3 0.987794 0.772403 0.997901
103 4 0.6682 0.393779 0.514884
ITEM: TIMESTEP
200
ITEM: NUMBER OF ATOMS
110
ITEM: BOX BOUNDS pp pp pp
-5.79054 5.79054
-5.79054 5.79054
-5.79054 5.79054
ITEM: ATOMS id type xs ys zs
1 1 0.579849 0.739037 0.124344
2 1 0.514637 0.626693 0.154889
4 2 0.64001 0.709184 0.0659071
5 2 0.561752 0.595091 0.231093
6 2 0.428895 0.657464 0.177177
7 3 0.701079 0.75671 0.301897
8 3 0.632977 0.717738 0.388093
9 3 0.816759 0.736252 0.293149
11 3 0.869585 0.703941 0.392131
12 3 0.797759 0.671373 0.488214
13 1 0.641193 0.820553 0.209415
14 1 0.706293 0.912474 0.134152
16 4 0.865209 0.740289 0.212967
18 4 0.96051 0.703739 0.392415
20 2 0.563696 0.854553 0.246192
21 2 0.66418 0.977314 0.0826994
22 2 0.742142 0.860531 0.0666157
23 1 0.895391 0.00810994 0.0885209
24 1 0.81387 0.966097 0.19575
25 2 0.855429 0.976776 0.0129366
26 2 0.98056 0.957105 0.0871994
27 2 0.870258 0.922789 0.259548
28 2 0.78966 0.0424466 0.247756
29 3 0.00267175 0.203204 0.102519
30 3 0.986526 0.317192 0.133092
31 3 0.109665 0.153823 0.101165
32 3 0.065672 0.372658 0.1995
33 3 0.194975 0.20375 0.171872
34 3 0.172215 0.30865 0.226685
35 1 0.898487 0.136779 0.0586226
37 4 0.902896 0.353361 0.123551
38 4 0.12266 0.0713225 0.0589901
39 4 0.0348198 0.451068 0.236912
40 4 0.274344 0.155373 0.185537
41 4 0.235184 0.333366 0.293667
42 2 0.830979 0.175027 0.106689
76 3 0.333647 0.841384 0.0220875
53 3 0.928226 0.716704 -0.0100148
81 4 0.278443 0.667107 0.0340102
55 3 0.898526 0.599285 0.00847378
15 4 0.53848 0.730857 0.380117
60 4 0.00825551 0.747756 0.0267894
62 4 0.95192 0.544214 0.0636094
3 2 0.5175 0.789757 0.0841667
92 2 0.369076 0.479463 0.487881
83 4 0.280978 0.85459 0.0930187
85 4 0.434191 1.00261 0.0245076
10 3 0.681416 0.684082 0.492469
90 1 0.268846 0.561108 0.626482
109 2 0.374841 0.182918 0.578074
61 4 0.649733 0.605671 0.87293
17 4 0.635081 0.660772 0.567787
103 4 0.569157 0.51469 0.658998
36 1 0.881478 0.157875 0.933704
43 2 0.786033 0.149301 0.912973
44 2 0.885534 0.251943 0.92363
45 1 0.882201 0.996652 0.775416
46 1 0.949806 0.100048 0.835206
47 2 0.791086 0.00213781 0.785937
48 2 0.899647 0.0033195 0.685895
51 3 0.874248 0.787629 0.904507
52 3 0.773174 0.737422 0.861334
54 3 0.733919 0.630114 0.895266
57 1 0.937565 0.880339 0.822047
58 1 0.969945 0.820296 0.708167
59 4 0.725704 0.778555 0.793527
49 2 -0.0236176 0.164055 0.767992
64 2 0.018179 0.89551 0.873408
65 2 0.00952083 0.881561 0.644853
66 2 0.899064 0.794061 0.651456
67 1 0.169946 0.742416 0.758857
68 1 0.0485414 0.720144 0.726247
69 2 0.215161 0.794254 0.70077
70 2 0.151292 0.806898 0.824497
71 2 1.02592 0.639788 0.766354
72 2 0.0685675 0.690671 0.633482
73 3 0.320664 0.730964 0.874686
74 3 0.327159 0.724651 0.981707
75 3 0.404435 0.793058 0.819844
101 1 0.393414 0.37583 0.632039
77 3 0.460716 0.884881 0.883556
78 3 0.4049 0.925476 0.981325
79 1 0.225855 0.656609 0.830784
89 1 0.378672 0.496392 0.57641
82 4 0.448211 0.769472 0.735986
88 2 0.310515 0.503165 0.791678
84 4 0.546731 0.902513 0.867511
96 3 0.573157 0.433481 0.703192
86 2 0.164351 0.639199 0.906059
93 2 0.195412 0.527496 0.595553
95 3 0.47874 0.364058 0.73577
107 4 0.777428 0.28327 0.78683
97 3 0.489522 0.260693 0.782794
98 3 0.689228 0.411916 0.713637
99 3 0.59865 0.260494 0.82919
100 3 0.695362 0.317214 0.778851
104 4 0.407003 0.229555 0.81473
105 4 0.751679 0.44488 0.646332
106 4 0.599579 0.184758 0.886635
80 1 0.235503 0.540988 0.756045
87 2 0.157615 0.480738 0.759427
19 4 0.843855 0.633408 0.560267
50 2 0.0322902 0.0734485 0.866211
108 2 0.32064 0.367703 0.688975
94 2 0.278827 0.651838 0.58811
102 1 0.406992 0.268185 0.550789
91 2 0.442939 0.565473 0.565144
56 3 0.803308 0.555718 0.95756
63 4 0.759844 0.478657 0.988099
110 2 0.500095 0.25249 0.550021
ITEM: TIMESTEP
300
ITEM: NUMBER OF ATOMS
110
ITEM: BOX BOUNDS pp pp pp
-5.79054 5.79054
-5.79054 5.79054
-5.79054 5.79054
ITEM: ATOMS id type xs ys zs
1 1 0.716549 0.64941 0.116769
2 1 0.62882 0.565838 0.0577216
4 2 0.769303 0.589657 0.160745
5 2 0.593288 0.506457 0.11355
85 4 0.573689 0.0289274 0.0878184
7 3 0.679105 0.719855 0.340387
8 3 0.581425 0.701514 0.417237
9 3 0.787057 0.681037 0.380673
11 3 0.791134 0.613376 0.484491
74 3 0.307194 0.95192 0.012307
13 1 0.66761 0.743053 0.212479
14 1 0.720361 0.860162 0.195149
16 4 0.851688 0.672858 0.321267
3 2 0.768931 0.689348 0.0483331
20 2 0.577717 0.753437 0.204942
21 2 0.69144 0.913224 0.266853
22 2 0.696962 0.891855 0.107458
23 1 0.909753 0.929598 0.0956424
24 1 0.855005 0.865752 0.201608
25 2 0.907273 0.870327 0.0215092
26 2 -0.000802034 0.939873 0.132538
27 2 0.893329 0.783182 0.19203
28 2 0.891727 0.908185 0.281438
29 3 0.96657 0.148512 0.137208
30 3 0.959789 0.181546 0.255665
31 3 0.0779502 0.166551 0.0845192
32 3 0.0544355 0.22903 0.323161
33 3 0.173959 0.220679 0.141938
34 3 0.159889 0.24452 0.259783
35 1 0.88014 0.0654376 0.079721
37 4 0.879526 0.171164 0.298644
78 3 0.50414 0.977186 0.0490646
39 4 0.0414981 0.253945 0.412115
40 4 0.257337 0.251708 0.10161
41 4 0.242232 0.282461 0.294832
42 2 0.810906 0.0699114 0.14164
76 3 0.392898 0.0234757 0.0380242
15 4 0.491239 0.728266 0.397216
81 4 0.21376 0.969554 0.038062
83 4 0.373685 0.111253 0.0640169
6 2 0.567367 0.612949 0.00821196
90 1 0.25534 0.64039 0.711779
109 2 0.24636 0.233932 0.686828
61 4 0.589048 0.555341 0.793301
17 4 0.517606 0.643792 0.588483
103 4 0.51654 0.431776 0.587524
36 1 0.822879 0.10388 0.957858
43 2 0.733195 0.0775542 0.951758
44 2 0.826113 0.199025 0.952433
45 1 0.819833 0.944514 0.80932
46 1 0.889029 0.0512436 0.857616
47 2 0.755263 0.909478 0.869708
48 2 0.766172 0.967739 0.74075
51 3 0.834585 0.709903 0.779921
52 3 0.712698 0.697068 0.79584
54 3 0.675088 0.580084 0.813999
57 1 0.89853 0.833569 0.770476
58 1 0.968724 0.867261 0.65608
59 4 0.656574 0.765527 0.769518
49 2 0.912167 0.10666 0.78444
64 2 0.970301 0.827262 0.837954
65 2 0.939977 0.954492 0.635075
66 2 0.933301 0.814333 0.588974
67 1 0.162549 0.916592 0.779771
68 1 0.100909 0.881966 0.653227
69 2 0.239779 0.933368 0.744389
70 2 0.123868 0.987186 0.819491
71 2 0.120655 0.798066 0.625454
72 2 0.100733 0.947959 0.58894
73 3 0.324113 0.862488 0.932201
53 3 0.903815 0.615819 0.809386
75 3 0.438092 0.849161 0.895075
101 1 0.343959 0.400045 0.733009
77 3 0.52873 0.881723 0.973663
92 2 0.368217 0.536813 0.605039
79 1 0.20745 0.818818 0.865872
89 1 0.358426 0.53727 0.696555
82 4 0.448743 0.778769 0.838453
88 2 0.305899 0.66625 0.890081
84 4 0.611743 0.846172 0.958333
96 3 0.543766 0.362836 0.650713
86 2 0.133321 0.809231 0.93025
93 2 0.183858 0.5988 0.683725
95 3 0.461801 0.344993 0.745033
107 4 0.688912 0.113878 0.653195
97 3 0.466979 0.247073 0.800624
98 3 0.638335 0.298175 0.626067
99 3 0.567798 0.186523 0.787461
100 3 0.635947 0.195389 0.682191
104 4 0.395145 0.223683 0.846298
105 4 0.680015 0.306722 0.537022
106 4 0.560265 0.103787 0.816941
80 1 0.234791 0.69 0.836249
87 2 0.168983 0.629569 0.8706
19 4 0.689756 0.536474 0.617508
50 2 0.965336 0.0230588 0.899567
108 2 0.304257 0.398275 0.819242
94 2 0.278755 0.697097 0.639264
102 1 0.274051 0.319707 0.645591
91 2 0.439659 0.556022 0.722291
56 3 0.752893 0.502402 0.85338
63 4 0.726819 0.418739 0.883027
110 2 0.32991 0.278966 0.583501
12 3 0.691377 0.605281 0.548795
55 3 0.866944 0.520501 0.857827
60 4 0.992873 0.626551 0.819479
62 4 0.921973 0.446969 0.881299
18 4 0.87188 0.573168 0.507288
10 3 0.590931 0.654511 0.524488
38 4 0.086748 0.146478 0.994265
ITEM: TIMESTEP
400
ITEM: NUMBER OF ATOMS
110
ITEM: BOX BOUNDS pp pp pp
-5.79054 5.79054
-5.79054 5.79054
-5.79054 5.79054
ITEM: ATOMS id type xs ys zs
1 1 0.728077 0.62024 0.164786
2 1 0.666303 0.500186 0.142068
4 2 0.815594 0.61027 0.137111
5 2 0.711564 0.427955 0.124074
85 4 0.553785 0.109727 0.088641
7 3 0.696851 0.612267 0.388555
8 3 0.633523 0.65851 0.476382
9 3 0.720331 0.494704 0.399381
11 3 0.651301 0.429878 0.474739
6 2 0.608764 0.473604 0.210774
13 1 0.729998 0.686791 0.284694
14 1 0.804899 0.804118 0.298688
16 4 0.774298 0.445091 0.347292
3 2 0.684076 0.675778 0.104908
20 2 0.65372 0.728985 0.281075
21 2 0.813864 0.823299 0.388337
22 2 0.745797 0.879819 0.273488
23 1 0.926246 0.879061 0.121246
24 1 0.928404 0.807517 0.237017
25 2 0.849336 0.841207 0.0843818
26 2 -0.0133912 0.846291 0.0546213
27 2 0.953691 0.721489 0.228519
28 2 0.980606 0.842506 0.306606
29 3 0.980713 0.0968878 0.184201
30 3 0.0475453 0.0725934 0.281819
31 3 0.972779 0.211624 0.154809
32 3 0.118974 0.152733 0.334245
33 3 0.0501877 0.294122 0.205832
34 3 0.125966 0.263638 0.287484
35 1 0.889499 0.0155248 0.129243
37 4 0.0168335 0.00120782 0.331824
78 3 0.484918 0.0632243 0.0517331
39 4 0.15283 0.13575 0.417179
40 4 0.0486441 0.384438 0.178214
41 4 0.183053 0.329075 0.328048
42 2 0.811213 0.0176381 0.187248
76 3 0.384578 0.130177 0.0224157
15 4 0.616253 0.754527 0.464434
83 4 0.356204 0.213931 0.0623907
105 4 0.304203 0.138483 0.47675
38 4 0.908396 0.235967 0.0921611
84 4 0.565534 0.88395 0.0435882
18 4 0.664307 0.338152 0.484895
77 3 0.4971 0.946776 0.0213485
90 1 0.350366 0.659756 0.777204
109 2 0.0715971 0.43601 0.77807
61 4 0.603383 0.575348 0.888846
17 4 0.468063 0.645618 0.550466
103 4 0.209392 0.296945 0.568249
36 1 0.85047 0.0359116 1.00334
43 2 0.779207 0.979282 0.987594
44 2 0.803075 0.113767 0.995816
45 1 0.895388 0.930387 0.793137
46 1 0.932852 0.00891316 0.897496
47 2 0.800708 0.930424 0.79899
48 2 0.900537 0.971112 0.711223
51 3 0.860576 0.695729 0.788107
52 3 0.763038 0.685341 0.860886
54 3 0.683539 0.602303 0.834601
57 1 0.943381 0.800618 0.784302
58 1 0.0420102 0.798821 0.690316
59 4 0.739642 0.747648 0.919892
49 2 0.967973 0.0819188 0.86383
64 2 0.98956 0.774105 0.861153
65 2 -0.00919108 0.785664 0.619001
66 2 0.101119 0.72754 0.69691
67 1 0.248984 0.916851 0.698093
68 1 0.121271 0.918383 0.664223
69 2 0.309093 0.870653 0.643249
70 2 0.278247 0.00960717 0.695972
71 2 0.126346 0.948088 0.575493
72 2 0.0810425 0.993118 0.706844
73 3 0.331372 0.967709 0.902236
53 3 0.877247 0.609055 0.70805
75 3 0.452523 0.925699 0.916061
101 1 0.264113 0.418993 0.773354
10 3 0.545173 0.594348 0.518087
92 2 0.395633 0.509873 0.881782
79 1 0.259312 0.87683 0.822977
89 1 0.31695 0.534335 0.838196
82 4 0.469326 0.836256 0.870059
88 2 0.286976 0.742934 0.937139
74 3 0.299971 0.074773 0.952995
96 3 0.300553 0.290308 0.601955
86 2 0.19011 0.8826 0.878131
93 2 0.335914 0.666721 0.688517
95 3 0.34512 0.343154 0.697595
107 4 0.494963 0.0895266 0.562735
97 3 0.440124 0.302312 0.757941
98 3 0.352718 0.201844 0.536148
99 3 0.496585 0.211805 0.69919
100 3 0.453289 0.16756 0.598058
104 4 0.4647 0.321559 0.845192
81 4 0.209513 0.0926974 0.988707
106 4 0.555999 0.169523 0.746503
80 1 0.269754 0.744099 0.844469
87 2 0.189074 0.704253 0.840378
19 4 0.490384 0.429353 0.552115
50 2 0.0148065 0.978502 0.935727
108 2 0.236699 0.370769 0.838769
94 2 0.437227 0.684168 0.775034
102 1 0.140602 0.417673 0.715249
91 2 0.258396 0.548633 0.91633
56 3 0.715247 0.51337 0.76221
63 4 0.649748 0.454438 0.745065
110 2 0.11184 0.33142 0.716659
12 3 0.541247 0.475059 0.499372
55 3 0.818931 0.505313 0.710619
60 4 0.934679 0.622711 0.627122
62 4 0.856056 0.42583 0.674152
ITEM: TIMESTEP
500
ITEM: NUMBER OF ATOMS
110
ITEM: BOX BOUNDS pp pp pp
-5.79054 5.79054
-5.79054 5.79054
-5.79054 5.79054
ITEM: ATOMS id type xs ys zs
1 1 0.805154 0.554538 0.194072
2 1 0.693903 0.512081 0.12558
4 2 0.855946 0.47647 0.227418
5 2 0.690319 0.418772 0.12342
85 4 0.499593 0.221811 0.0485464
7 3 0.678006 0.533601 0.375205
8 3 0.60578 0.583916 0.458003
9 3 0.65527 0.415935 0.344324
11 3 0.553632 0.363849 0.383636
6 2 0.616657 0.57747 0.129616
13 1 0.775246 0.612547 0.313188
14 1 0.8737 0.687951 0.376153
16 4 0.718469 0.364396 0.300345
3 2 0.864015 0.59224 0.133837
20 2 0.729155 0.685253 0.288184
21 2 0.932856 0.636018 0.409769
22 2 0.840439 0.7433 0.439273
23 1 0.925645 0.799096 0.17637
24 1 0.943359 0.778903 0.306295
25 2 0.836511 0.766757 0.149413
26 2 -0.00771226 0.758827 0.120198
27 2 0.0163319 0.727812 0.290957
28 2 0.960484 0.849817 0.367375
29 3 0.964228 0.029952 0.187294
30 3 0.0789147 0.0225931 0.217384
31 3 0.901014 0.123281 0.218774
32 3 0.13269 0.117988 0.270734
33 3 0.953146 0.209201 0.273912
34 3 0.0714132 0.215203 0.293096
35 1 0.889996 0.922248 0.15242
37 4 0.131072 0.943629 0.191951
78 3 0.465867 0.154082 -0.00176881
39 4 0.220747 0.115045 0.285018
40 4 0.900361 0.286094 0.305995
41 4 0.109437 0.29728 0.320262
42 2 0.802111 0.926701 0.19735
36 1 0.845453 0.936566 0.0296283
12 3 0.47161 0.432343 0.437111
19 4 0.395049 0.394389 0.468539
77 3 0.511736 0.0453411 0.005118
38 4 0.808823 0.123585 0.209165
84 4 0.581918 0.0307111 0.0706179
18 4 0.527242 0.278464 0.3552
107 4 0.306544 0.167136 0.507744
10 3 0.487797 0.552323 0.463625
87 2 0.311582 0.715681 0.00850684
90 1 0.348397 0.609378 0.863698
109 2 0.0342603 0.528669 0.910499
61 4 0.710188 0.568977 0.936738
17 4 0.426583 0.597964 0.522851
103 4 0.054876 0.340089 0.70601
62 4 0.785199 0.505073 0.589171
60 4 0.883127 0.697739 0.58556
110 2 0.0243348 0.504201 0.75679
45 1 0.939866 0.95026 0.806781
46 1 0.941724 0.945979 0.938709
47 2 0.851113 0.971925 0.774562
48 2 1.00147 0.0146731 0.780972
51 3 0.882712 0.729435 0.76706
52 3 0.829486 0.688452 0.870213
54 3 0.755275 0.591736 0.866852
57 1 0.975287 0.828009 0.759603
58 1 0.0622417 0.82909 0.654627
59 4 0.834069 0.728377 0.947394
49 2 -0.0046786 0.0147786 0.953263
64 2 0.0435403 0.811117 0.823183
65 2 0.0189376 0.864846 0.584299
66 2 0.085577 0.741215 0.61094
67 1 0.289002 0.836708 0.729359
68 1 0.179943 0.902797 0.680077
69 2 0.24753 0.750961 0.721046
70 2 0.361212 0.851554 0.667427
71 2 0.222386 0.923042 0.602391
72 2 0.165543 0.988047 0.710797
73 3 0.346516 0.969706 0.902839
53 3 0.852243 0.665147 0.66526
75 3 0.455029 0.955816 0.951127
101 1 0.192663 0.447384 0.858851
43 2 0.781463 0.873078 1.01099
92 2 0.332441 0.475936 0.990571
79 1 0.301766 0.842398 0.862215
89 1 0.276079 0.520189 0.926547
82 4 0.514164 0.88662 0.915532
88 2 0.448369 0.727867 0.959239
74 3 0.301149 0.0831151 0.894307
96 3 0.15002 0.317674 0.684259
86 2 0.216733 0.84381 0.901264
93 2 0.334874 0.615364 0.774329
95 3 0.234119 0.358395 0.768702
105 4 0.0947295 0.218027 0.542747
97 3 0.350458 0.338439 0.741986
98 3 0.165748 0.262321 0.584116
99 3 0.37691 0.270698 0.650213
100 3 0.279652 0.231749 0.572008
104 4 0.405259 0.367981 0.811921
81 4 0.22381 0.100402 0.833905
106 4 0.461567 0.251663 0.623073
80 1 0.357248 0.724322 0.932821
83 4 0.323591 0.259828 0.955303
55 3 0.786872 0.568409 0.662329
50 2 -0.0190292 0.864441 0.964272
108 2 0.184073 0.397649 0.931466
94 2 0.432343 0.573693 0.855354
102 1 0.0809322 0.513923 0.831674
91 2 0.2105 0.562204 0.984644
56 3 0.7362 0.538155 0.765807
63 4 0.671997 0.474031 0.764597
76 3 0.367135 0.172024 0.949053
15 4 0.627312 0.666004 0.510589
44 2 0.804197 0.017595 1.03516
ITEM: TIMESTEP
600
ITEM: NUMBER OF ATOMS
110
ITEM: BOX BOUNDS pp pp pp
-5.79054 5.79054
-5.79054 5.79054
-5.79054 5.79054
ITEM: ATOMS id type xs ys zs
1 1 0.817092 0.392468 0.18414
2 1 0.74038 0.352891 0.0778021
4 2 0.847226 0.32158 0.240478
87 2 0.352858 0.721566 0.0386985
15 4 0.61466 0.666681 0.251825
7 3 0.661289 0.489182 0.301272
8 3 0.59194 0.589275 0.304469
9 3 0.617808 0.38869 0.352126
11 3 0.508692 0.398813 0.408729
6 2 0.642903 0.381882 0.0601404
13 1 0.771079 0.50337 0.242017
14 1 0.867941 0.558631 0.307771
16 4 0.672979 0.316774 0.364802
3 2 0.89464 0.400995 0.134791
20 2 0.757011 0.553259 0.161028
21 2 0.934407 0.549138 0.239784
22 2 0.912733 0.527337 0.38673
23 1 0.896423 0.754918 0.18774
24 1 0.877536 0.701741 0.30747
25 2 0.840188 0.695415 0.133138
26 2 0.983453 0.752142 0.152126
27 2 0.928309 0.739409 0.37455
28 2 0.794824 0.730435 0.335062
29 3 0.940776 0.966036 0.248547
30 3 0.0638811 0.98009 0.227531
31 3 0.897007 0.041865 0.330163
32 3 0.107295 0.098718 0.221254
33 3 0.941831 0.15462 0.342291
34 3 0.0445709 0.177715 0.287465
35 1 0.856518 0.889348 0.181542
37 4 0.113336 0.912826 0.175502
91 2 0.284641 0.536505 0.0699877
39 4 0.183494 0.134854 0.181067
40 4 0.892546 0.231263 0.379826
41 4 0.0856322 0.263171 0.288182
42 2 0.766563 0.910351 0.211125
36 1 0.858648 0.921049 0.0460519
12 3 0.440081 0.497376 0.394259
19 4 0.347194 0.506145 0.42334
44 2 0.842358 0.0118745 0.0372069
38 4 0.808029 0.0326776 0.353224
10 3 0.484004 0.574789 0.323352
18 4 0.468103 0.334608 0.466442
17 4 0.428242 0.649204 0.307702
108 2 0.145309 0.396431 0.0275282
49 2 0.0270895 0.959479 0.014024
81 4 0.209498 0.970049 0.0151876
5 2 0.791678 0.356542 -0.000492587
43 2 0.792155 0.883396 0.00162321
90 1 0.301253 0.602664 0.902703
109 2 0.973227 0.476436 0.9813
61 4 0.730089 0.589072 0.903354
77 3 0.499295 0.087816 0.920127
103 4 0.974147 0.337864 0.87578
62 4 0.780068 0.616172 0.52496
60 4 0.952502 0.735506 0.5809
110 2 0.0154082 0.588627 0.91442
45 1 0.981296 0.93068 0.848747
46 1 0.974415 0.895547 0.982911
47 2 0.894906 0.954987 0.81252
48 2 0.0321495 0.00607075 0.831433
51 3 0.917999 0.748158 0.754607
52 3 0.839568 0.710989 0.832498
54 3 0.771814 0.6138 0.822504
57 1 0.0334949 0.823925 0.77982
58 1 0.131742 0.862623 0.688447
59 4 0.860837 0.740411 0.917771
84 4 0.584696 0.126683 0.933579
64 2 0.0825259 0.77253 0.845003
65 2 0.0922557 0.921763 0.629867
66 2 0.146734 0.777292 0.631448
67 1 0.361172 0.827218 0.761877
68 1 0.25691 0.912921 0.727706
69 2 0.333177 0.740605 0.720372
70 2 0.445048 0.846333 0.713361
71 2 0.290538 0.964329 0.657528
72 2 0.236971 0.9628 0.800091
73 3 0.383562 0.931839 0.961181
53 3 0.891374 0.714619 0.645133
75 3 0.492068 0.976527 0.936781
101 1 0.149808 0.460983 0.960148
76 3 0.300362 0.119142 0.963033
63 4 0.654391 0.550391 0.700629
79 1 0.332254 0.821768 0.896397
89 1 0.274067 0.510469 0.9849
82 4 0.568867 0.925158 0.90792
88 2 0.465274 0.683592 0.944471
74 3 0.286208 0.00589924 0.983696
96 3 0.0479873 0.336658 0.810958
86 2 0.242141 0.812029 0.915145
93 2 0.240554 0.610382 0.835064
95 3 0.151565 0.384776 0.845711
105 4 0.936079 0.244158 0.678871
97 3 0.237796 0.397659 0.762089
98 3 0.0183413 0.287418 0.702832
99 3 0.226565 0.328444 0.656992
100 3 0.117437 0.280837 0.630923
104 4 0.319045 0.418867 0.771531
50 2 1.00389 0.802747 0.990195
106 4 0.304868 0.325998 0.608016
80 1 0.36855 0.707606 0.943608
83 4 0.231422 0.187031 0.962067
55 3 0.789122 0.643215 0.618553
56 3 0.730516 0.599264 0.713227
85 4 0.428621 0.248239 0.935008
94 2 0.360329 0.556917 0.84667
102 1 0.0444343 0.532546 0.984999
78 3 0.41289 0.156271 0.925816
107 4 0.111264 0.221191 0.56421
92 2 0.341499 0.445638 0.97289
ITEM: TIMESTEP
700
ITEM: NUMBER OF ATOMS
110
ITEM: BOX BOUNDS pp pp pp
-5.79054 5.79054
-5.79054 5.79054
-5.79054 5.79054
ITEM: ATOMS id type xs ys zs
1 1 0.783411 0.28935 0.180143
2 1 0.729695 0.208284 0.0927007
4 2 0.76134 0.259155 0.25703
87 2 0.337652 0.704873 0.0610471
15 4 0.549331 0.527665 0.0762227
7 3 0.617621 0.435176 0.223463
8 3 0.553348 0.511172 0.166317
9 3 0.617058 0.429549 0.347244
11 3 0.531847 0.497829 0.399547
6 2 0.739251 0.119545 0.137653
13 1 0.739017 0.420318 0.164654
14 1 0.837461 0.513491 0.180629
16 4 0.668685 0.379962 0.402116
3 2 0.876386 0.283358 0.168058
20 2 0.7199 0.428155 0.0708717
21 2 0.892604 0.493155 0.102385
22 2 0.898328 0.489988 0.249486
23 1 0.930072 0.723745 0.20527
24 1 0.826004 0.646889 0.165913
25 2 0.00891557 0.702022 0.15436
26 2 0.937728 0.729504 0.299592
27 2 0.754852 0.663799 0.231949
28 2 0.799113 0.664499 0.07397
29 3 0.954557 0.937167 0.273842
30 3 0.0671859 0.943089 0.297201
31 3 0.87984 0.00895622 0.331688
32 3 0.109034 0.00658001 0.39239
33 3 0.917863 0.0991627 0.394257
34 3 0.028925 0.0852408 0.437242
35 1 0.901258 0.85667 0.183687
37 4 0.118149 0.888185 0.240845
91 2 0.335067 0.474585 0.060009
39 4 0.197058 0.0134048 0.420311
40 4 0.860322 0.163362 0.443829
41 4 0.0671374 0.141118 0.502784
42 2 0.815499 0.862908 0.223108
36 1 0.901839 0.900204 0.0579914
12 3 0.459409 0.561041 0.337919
19 4 0.379694 0.600054 0.380723
44 2 0.837526 0.965924 0.0486562
38 4 0.788121 -0.0055702 0.318118
10 3 0.461485 0.555132 0.221697
5 2 0.630076 0.22035 0.0939057
17 4 0.409373 0.625389 0.184079
108 2 0.221077 0.297 0.0189861
101 1 0.200135 0.387548 0.00850568
81 4 0.352449 0.930872 0.116473
83 4 0.422961 0.11583 0.16282
109 2 0.101635 0.366265 0.175334
102 1 0.159016 0.426754 0.135261
74 3 0.359877 0.983058 0.0446897
110 2 0.122092 0.513801 0.142873
76 3 0.399844 0.0908521 0.0739454
62 4 0.766599 0.751546 0.477234
103 4 0.978977 0.345991 0.0337015
43 2 0.865232 0.827188 0.0148536
85 4 0.479826 0.250484 0.0184184
50 2 0.0932498 0.904613 0.0078483
49 2 0.0123087 0.0284031 0.023825
18 4 0.512871 0.505853 0.491872
90 1 0.283078 0.583274 0.927807
80 1 0.359338 0.696384 0.969817
61 4 0.661371 0.613907 0.802841
77 3 0.466939 0.116943 0.876594
106 4 0.0674065 0.354121 0.619003
89 1 0.30634 0.457028 0.981041
60 4 0.947149 0.78893 0.551262
55 3 0.778478 0.727979 0.564923
45 1 0.969331 0.94393 0.85928
46 1 0.00644524 0.941783 0.991873
47 2 0.874109 0.938541 0.852617
48 2 0.0020427 0.0135902 0.814223
51 3 0.917954 0.750939 0.729022
52 3 0.826633 0.705792 0.790525
54 3 0.726608 0.65449 0.745126
57 1 0.0135841 0.83427 0.786104
58 1 0.103968 0.885171 0.698589
59 4 0.856794 0.679283 0.876585
84 4 0.537878 0.160447 0.843092
64 2 0.0587023 0.780127 0.847999
65 2 0.0780985 0.960931 0.655155
66 2 0.125925 0.816574 0.627328
67 1 0.286849 0.800941 0.786589
68 1 0.216346 0.902432 0.736599
69 2 0.266162 0.71473 0.757947
70 2 0.36583 0.798922 0.741422
71 2 0.253506 0.947092 0.663413
72 2 0.223422 0.96995 0.79685
73 3 0.38189 0.93241 0.94336
53 3 0.888646 0.746382 0.607736
75 3 0.41796 0.00990385 0.854961
92 2 0.37676 0.403821 0.947675
56 3 0.698559 0.679031 0.632741
63 4 0.628499 0.648128 0.58127
79 1 0.320061 0.812489 0.912323
107 4 0.882386 0.321657 0.688901
82 4 0.437787 0.980532 0.767793
88 2 0.455142 0.665965 0.947315
78 3 0.449411 0.156636 0.99028
96 3 0.997537 0.352919 0.935628
86 2 0.229386 0.807329 0.935917
93 2 0.190886 0.608089 0.919113
95 3 0.110613 0.383406 0.905591
105 4 0.815101 0.321108 0.886027
97 3 0.148834 0.379841 0.785871
98 3 0.908164 0.330994 0.864604
99 3 0.0572345 0.354343 0.712725
100 3 0.939492 0.341575 0.752592
104 4 0.239247 0.401872 0.758983
94 2 0.290876 0.568019 0.826189
ITEM: TIMESTEP
800
ITEM: NUMBER OF ATOMS
110
ITEM: BOX BOUNDS pp pp pp
-5.79054 5.79054
-5.79054 5.79054
-5.79054 5.79054
ITEM: ATOMS id type xs ys zs
1 1 0.767747 0.310277 0.244235
2 1 0.669801 0.249211 0.196492
4 2 0.747337 0.328559 0.336393
85 4 0.525503 0.144646 0.0859447
15 4 0.567857 0.471823 0.0860171
7 3 0.663295 0.507057 0.229132
8 3 0.564014 0.526419 0.160352
9 3 0.662751 0.538259 0.345779
11 3 0.561289 0.524442 0.402625
6 2 0.644404 0.269488 0.106597
13 1 0.764104 0.42717 0.16679
14 1 0.886004 0.479072 0.169302
16 4 0.742482 0.528067 0.386664
3 2 0.853204 0.277141 0.231609
20 2 0.732405 0.407872 0.0798402