ITEM: TIMESTEP
0
ITEM: NUMBER OF ATOMS
50
ITEM: BOX BOUNDS pp pp pp
-5.79054 5.79054
-5.79054 5.79054
-5.79054 5.79054
ITEM: ATOMS id type xs ys zs
23 1 0.541981 0.559477 0.403716
25 2 0.575577 0.472247 0.416842
26 2 0.613634 0.610911 0.370137
29 3 0.393277 0.674906 0.286738
30 3 0.277286 0.69761 0.311185
31 3 0.461518 0.762412 0.239195
32 3 0.230446 0.806221 0.288959
33 3 0.414612 0.87094 0.216647
34 3 0.299086 0.892953 0.241686
35 1 0.444059 0.555894 0.312332
36 1 0.488409 0.497485 0.201123
37 4 0.222705 0.630634 0.348078
38 4 0.551936 0.746367 0.219546
39 4 0.140137 0.823189 0.308522
40 4 0.468345 0.938445 0.179668
41 4 0.262522 0.977698 0.224543
42 2 0.375455 0.5003 0.345384
43 2 0.419557 0.491773 0.136852
44 2 0.560109 0.545508 0.163066
49 2 0.649277 0.418968 0.0259213
50 2 0.535512 0.317286 0.0348449
1 1 0.29811 0.502026 0.770998
2 1 0.178357 0.506312 0.712999
3 2 0.327996 0.412626 0.775486
4 2 0.288352 0.532039 0.859953
5 2 0.178395 0.462801 0.629328
6 2 0.149258 0.595312 0.701535
7 3 0.496158 0.5882 0.787839
8 3 0.516015 0.689949 0.849651
9 3 0.571974 0.495267 0.80228
10 3 0.610497 0.699141 0.923618
11 3 0.666825 0.504577 0.875788
12 3 0.686169 0.60652 0.936574
13 1 0.389922 0.578023 0.709949
14 1 0.418248 0.532234 0.586927
15 4 0.457209 0.762599 0.841171
16 4 0.557212 0.414637 0.7566
17 4 0.624872 0.778533 0.971638
18 4 0.725491 0.432001 0.886141
19 4 0.759919 0.613618 0.994247
20 2 0.353046 0.664364 0.699663
21 2 0.338794 0.528048 0.536516
22 2 0.45213 0.444349 0.591956
24 1 0.50522 0.610243 0.521942
27 2 0.582907 0.620547 0.57448
28 2 0.468686 0.696487 0.510502
45 1 0.621249 0.322533 0.868027
46 1 0.57711 0.380665 0.978707
47 2 0.664107 0.386049 0.813036
48 2 0.54943 0.285079 0.819558
ITEM: TIMESTEP
100
ITEM: NUMBER OF ATOMS
50
ITEM: BOX BOUNDS pp pp pp
-5.79054 5.79054
-5.79054 5.79054
-5.79054 5.79054
ITEM: ATOMS id type xs ys zs
23 1 0.57156 0.520819 0.399058
25 2 0.571552 0.437786 0.452878
26 2 0.67391 0.534017 0.401543
29 3 0.434649 0.624266 0.235258
30 3 0.304041 0.639934 0.253833
31 3 0.494142 0.714416 0.179184
32 3 0.275883 0.751773 0.282336
33 3 0.45977 0.822667 0.202645
34 3 0.3707 0.829208 0.284574
35 1 0.52123 0.511588 0.280909
36 1 0.615133 0.437602 0.200501
37 4 0.249742 0.563361 0.281042
38 4 0.576601 0.68682 0.140957
39 4 0.201369 0.779225 0.333196
40 4 0.515496 0.896613 0.187571
41 4 0.37061 0.90588 0.339213
42 2 0.452455 0.4583 0.283493
43 2 0.589364 0.482234 0.113999
44 2 0.682417 0.485585 0.231948
49 2 0.659594 0.264583 0.122684
50 2 0.64371 0.264463 0.27698
28 2 0.479997 0.684381 0.43815
46 1 0.60809 0.298511 0.197215
24 1 0.521561 0.610828 0.478649
45 1 0.494189 0.242217 0.146548
47 2 0.509022 0.149014 0.126434
48 2 0.463865 0.303831 0.0811512
1 1 0.335724 0.595745 0.759303
2 1 0.245452 0.515647 0.691817
3 2 0.367566 0.538143 0.831371
4 2 0.286385 0.665956 0.793005
5 2 0.280392 0.445085 0.640986
6 2 0.152956 0.535314 0.679887
7 3 0.506987 0.752811 0.727496
8 3 0.441195 0.835792 0.775673
9 3 0.621673 0.741662 0.724759
10 3 0.477893 0.876578 0.87467
11 3 0.670645 0.825435 0.801759
12 3 0.605142 0.882928 0.881984
13 1 0.419457 0.672245 0.674421
14 1 0.466806 0.582301 0.5962
15 4 0.353877 0.831601 0.739324
16 4 0.687027 0.689223 0.683665
17 4 0.421105 0.931916 0.924124
18 4 0.766701 0.810535 0.802964
19 4 0.634498 0.924861 0.954873
20 2 0.363089 0.714103 0.605998
21 2 0.382969 0.558858 0.559879
22 2 0.473915 0.507807 0.653857
27 2 0.594396 0.667436 0.509451
ITEM: TIMESTEP
200
ITEM: NUMBER OF ATOMS
50
ITEM: BOX BOUNDS pp pp pp
-5.79054 5.79054
-5.79054 5.79054
-5.79054 5.79054
ITEM: ATOMS id type xs ys zs
23 1 0.642781 0.525213 0.443363
48 2 0.495019 0.120588 0.31964
26 2 0.694492 0.556858 0.382012
29 3 0.496454 0.599924 0.275471
30 3 0.379829 0.595491 0.286375
31 3 0.554711 0.656155 0.1882
32 3 0.316958 0.685577 0.234365
33 3 0.504528 0.75039 0.128954
34 3 0.381468 0.758977 0.153189
35 1 0.543311 0.500826 0.355691
36 1 0.583845 0.403788 0.251239
37 4 0.329213 0.5389 0.354371
38 4 0.653518 0.63681 0.180437
39 4 0.227528 0.689711 0.262382
40 4 0.564857 0.805032 0.0860439
41 4 0.340585 0.836645 0.120175
42 2 0.477525 0.45245 0.410015
43 2 0.519478 0.419992 0.191872
44 2 0.653592 0.431213 0.199366
49 2 0.602516 0.230402 0.162261
50 2 0.682768 0.258069 0.299306
28 2 0.605067 0.71021 0.449151
46 1 0.599154 0.271038 0.246516
24 1 0.632659 0.6351 0.514399
45 1 0.501134 0.219168 0.313864
47 2 0.50907 0.249004 0.407981
1 1 0.372331 0.6961 0.745269
2 1 0.316287 0.567093 0.737237
3 2 0.438481 0.690051 0.812107
4 2 0.308533 0.762439 0.753726
5 2 0.240924 0.537965 0.777369
6 2 0.295518 0.541076 0.647392
7 3 0.48528 0.866215 0.69195
8 3 0.394858 0.952331 0.664896
9 3 0.596196 0.903264 0.727367
10 3 0.392422 0.0724674 0.70726
11 3 0.608756 1.02133 0.718083
12 3 0.502555 0.096349 0.714661
13 1 0.460204 0.736733 0.652789
14 1 0.533537 0.625938 0.597852
15 4 0.301725 0.929209 0.641369
16 4 0.661262 0.833114 0.718679
17 4 0.323589 0.136938 0.713277
18 4 0.694175 0.0635577 0.728303
19 4 0.529991 0.178281 0.742856
20 2 0.411163 0.754753 0.569157
21 2 0.478394 0.549806 0.581717
22 2 0.593647 0.613226 0.669159
25 2 0.668016 0.455395 0.493109
27 2 0.715861 0.663639 0.546449
ITEM: TIMESTEP
300
ITEM: NUMBER OF ATOMS
50
ITEM: BOX BOUNDS pp pp pp
-5.79054 5.79054
-5.79054 5.79054
-5.79054 5.79054
ITEM: ATOMS id type xs ys zs
23 1 0.679466 0.625035 0.446742
48 2 0.642912 0.200004 0.403003
26 2 0.746887 0.606339 0.392677
29 3 0.513079 0.623797 0.301775
30 3 0.399671 0.596871 0.278667
31 3 0.577241 0.634647 0.200317
32 3 0.341937 0.622456 0.175664
33 3 0.539942 0.687293 0.093986
34 3 0.41264 0.686598 0.0925077
35 1 0.565988 0.573515 0.401677
36 1 0.587618 0.442518 0.364039
37 4 0.354875 0.549614 0.354465
38 4 0.663815 0.610301 0.209142
39 4 0.2511 0.599738 0.171653
40 4 0.594222 0.719843 0.0271576
41 4 0.361942 0.727723 0.0244361
42 2 0.506895 0.561098 0.473315
43 2 0.529194 0.418186 0.304613
44 2 0.675132 0.433884 0.330202
49 2 0.654617 0.374836 0.520643
45 1 0.563907 0.251073 0.416803
28 2 0.603647 0.805274 0.431657
46 1 0.575366 0.368855 0.473847
47 2 0.479255 0.230287 0.373232
15 4 0.359964 0.888147 0.448447
17 4 0.304231 0.119526 0.45422
27 2 0.748677 0.785058 0.493957
24 1 0.667978 0.762754 0.489783
1 1 0.43812 0.765508 0.733589
2 1 0.364073 0.659792 0.759615
3 2 0.505577 0.782827 0.80742
4 2 0.379795 0.840251 0.758703
5 2 0.409432 0.583506 0.761955
6 2 0.312226 0.682472 0.835358
7 3 0.48081 0.901163 0.588151
8 3 0.40795 0.95012 0.502549
9 3 0.539648 0.970188 0.66187
10 3 0.366066 0.0585778 0.510161
11 3 0.522648 0.0852672 0.648828
12 3 0.431991 0.127352 0.585124
13 1 0.486582 0.779679 0.614725
14 1 0.620799 0.761295 0.615536
50 2 0.504643 0.394362 0.536361
16 4 0.583551 0.94428 0.738539
25 2 0.686816 0.574122 0.517542
18 4 0.562804 0.139724 0.71071
19 4 0.395728 0.212884 0.593156
20 2 0.440284 0.741773 0.545285
21 2 0.593992 0.671363 0.640285
22 2 0.66502 0.812729 0.683296
ITEM: TIMESTEP
400
ITEM: NUMBER OF ATOMS
50
ITEM: BOX BOUNDS pp pp pp
-5.79054 5.79054
-5.79054 5.79054
-5.79054 5.79054
ITEM: ATOMS id type xs ys zs
23 1 0.728835 0.704298 0.459611
10 3 0.310536 0.041091 0.436053
26 2 0.807674 0.706128 0.418848
29 3 0.57764 0.640115 0.288274
30 3 0.459351 0.615451 0.290097
31 3 0.612437 0.644129 0.17355
32 3 0.379779 0.62369 0.191764
33 3 0.551041 0.668094 0.0684991
34 3 0.431569 0.654602 0.0836027
35 1 0.653267 0.609942 0.396514
36 1 0.710391 0.494633 0.359271
37 4 0.432646 0.566533 0.373066
38 4 0.702308 0.624192 0.168256
39 4 0.288135 0.604147 0.203625
8 3 0.383105 0.951524 0.486011
50 2 0.705263 0.293798 0.349546
42 2 0.595916 0.580431 0.455811
43 2 0.746898 0.500058 0.271963
44 2 0.778173 0.499281 0.434132
17 4 0.258726 0.0211106 0.344864
15 4 0.389668 0.870962 0.430129
28 2 0.625471 0.866506 0.418345
46 1 0.654287 0.37115 0.375413
49 2 0.570998 0.349531 0.338289
19 4 0.243695 0.210036 0.470213
24 1 0.693841 0.831611 0.48616
41 4 0.377086 0.665565 0.00890835
27 2 0.759607 0.881487 0.454498
47 2 0.584626 0.26163 0.503834
1 1 0.45397 0.794917 0.728014
2 1 0.429799 0.660928 0.705681
3 2 0.485278 0.810972 0.818677
4 2 0.365921 0.839626 0.73401
5 2 0.471514 0.626396 0.628314
6 2 0.366402 0.61364 0.758556
7 3 0.44246 0.965149 0.592167
22 2 0.664322 0.970763 0.581772
9 3 0.413222 0.046816 0.663658
25 2 0.76692 0.678315 0.537416
11 3 0.353548 0.139041 0.617809
12 3 0.293999 0.144155 0.499092
13 1 0.518513 0.865026 0.631277
14 1 0.655953 0.882218 0.607378
20 2 0.511319 0.807336 0.556845
16 4 0.441883 0.0586006 0.749684
21 2 0.726481 0.881537 0.671057
18 4 0.346413 0.207741 0.674353
40 4 0.592485 0.690429 0.989
45 1 0.629036 0.343955 0.507974
48 2 0.593245 0.421061 0.547011
ITEM: TIMESTEP
500
ITEM: NUMBER OF ATOMS
50
ITEM: BOX BOUNDS pp pp pp
-5.79054 5.79054
-5.79054 5.79054
-5.79054 5.79054
ITEM: ATOMS id type xs ys zs
23 1 0.745938 0.821696 0.38956
10 3 0.273429 0.0731761 0.381858
26 2 0.782026 0.814261 0.30207
29 3 0.637547 0.649915 0.315631
30 3 0.525538 0.619745 0.334351
31 3 0.680157 0.659506 0.202082
32 3 0.441747 0.635036 0.246249
33 3 0.610407 0.670971 0.110689
34 3 0.492748 0.659813 0.136211
35 1 0.715446 0.696007 0.413279
36 1 0.790395 0.597034 0.465834
37 4 0.501309 0.597294 0.430809
38 4 0.772367 0.662145 0.176914
39 4 0.350919 0.617249 0.262543
8 3 0.333802 0.975539 0.413904
50 2 0.83072 0.401355 0.490866
42 2 0.665829 0.710706 0.479105
43 2 0.875898 0.629801 0.495501
12 3 0.224153 0.13876 0.465184
17 4 0.252901 0.088876 0.285372
15 4 0.368009 0.924665 0.340113
28 2 0.574899 0.924748 0.336315
46 1 0.779984 0.465754 0.437624
49 2 0.829463 0.461344 0.354241
19 4 0.180169 0.210486 0.431864
24 1 0.642463 0.925392 0.405943
41 4 0.439822 0.689693 0.0642308
27 2 0.686654 1.00151 0.384689
40 4 0.641595 0.683045 0.0220817
48 2 0.662546 0.33564 0.462523
45 1 0.666169 0.401486 0.407172
25 2 0.808249 0.865483 0.44825
47 2 0.591505 0.439765 0.424827
20 2 0.455042 0.795458 0.480554
1 1 0.454972 0.807342 0.668204
2 1 0.562185 0.748445 0.717257
3 2 0.443631 0.864257 0.744588
4 2 0.396462 0.72693 0.661418
5 2 0.577341 0.75622 0.811913
6 2 0.619242 0.700252 0.663635
7 3 0.381952 0.955159 0.530165
22 2 0.571834 0.0148532 0.522307
9 3 0.325425 0.0161248 0.626021
18 4 0.208056 0.133786 0.667261
11 3 0.243844 0.103897 0.591411
44 2 0.7697 0.595627 0.554813
13 1 0.475023 0.860253 0.544841
14 1 0.586663 0.923413 0.523788
21 2 0.657521 0.933146 0.591588
16 4 0.342679 0.989472 0.703178
ITEM: TIMESTEP
600
ITEM: NUMBER OF ATOMS
50
ITEM: BOX BOUNDS pp pp pp
-5.79054 5.79054
-5.79054 5.79054
-5.79054 5.79054
ITEM: ATOMS id type xs ys zs
23 1 0.746138 0.868434 0.444729
10 3 0.211942 0.0621692 0.343882
26 2 0.831891 0.85962 0.398327
29 3 0.644379 0.71065 0.325995
30 3 0.533845 0.662568 0.322491
31 3 0.711042 0.713284 0.227588
32 3 0.494709 0.617277 0.228782
33 3 0.6789 0.655846 0.130563
34 3 0.569632 0.607551 0.131374
35 1 0.700699 0.752121 0.446104
36 1 0.794706 0.667117 0.487444
37 4 0.485967 0.658894 0.40834
38 4 0.802089 0.747013 0.241975
39 4 0.423093 0.558119 0.228863
8 3 0.317009 -0.00591868 0.367296
20 2 0.467645 0.84913 0.449462
22 2 0.539526 0.0763112 0.41881
45 1 0.897214 0.464577 0.42165
12 3 0.12718 0.0617864 0.432162
17 4 0.196803 0.0901455 0.252934
15 4 0.381896 0.95242 0.307684
28 2 0.619747 0.93793 0.328892
46 1 0.874808 0.593031 0.406721
49 2 0.834864 0.597459 0.324811
19 4 0.035618 0.0946872 0.415619
24 1 0.671176 0.966523 0.397843
41 4 0.531759 0.571012 0.0486627
27 2 0.727323 0.040768 0.377029
40 4 0.739232 0.641312 0.0603701
48 2 0.823794 0.428019 0.443971
50 2 0.949124 0.652838 0.399562
7 3 0.359678 0.981837 0.482343
47 2 0.916026 0.426723 0.343294
14 1 0.569 0.00771666 0.476619
42 2 0.629841 0.752221 0.506611
1 1 0.459439 0.871446 0.641099
2 1 0.567326 0.851561 0.685827
3 2 0.435722 0.942363 0.704909
4 2 0.39109 0.798839 0.653215
5 2 0.617264 0.923159 0.718279
6 2 0.57335 0.777704 0.741219
43 2 0.838075 0.715217 0.550737
25 2 0.756947 0.900003 0.541993
9 3 0.292244 0.0227174 0.572828
18 4 0.147991 0.0920487 0.627067
11 3 0.178309 0.0533379 0.542405
44 2 0.763375 0.62592 0.563317
13 1 0.4718 0.918534 0.511159
16 4 0.314531 0.0538943 0.650619
21 2 0.604453 0.0412248 0.554889
ITEM: TIMESTEP
700
ITEM: NUMBER OF ATOMS
50
ITEM: BOX BOUNDS pp pp pp
-5.79054 5.79054
-5.79054 5.79054
-5.79054 5.79054
ITEM: ATOMS id type xs ys zs
23 1 0.706912 0.923693 0.462148
10 3 0.195468 0.969046 0.313424
26 2 0.788024 0.986159 0.459634
29 3 0.693958 0.712998 0.322525
30 3 0.63106 0.613216 0.319046
31 3 0.715466 0.762965 0.212261
32 3 0.595865 0.559416 0.212858
33 3 0.694177 0.707698 0.1008
34 3 0.637595 0.60239 0.112793
35 1 0.732667 0.784766 0.43591
36 1 0.858654 0.765595 0.476488
37 4 0.599669 0.566785 0.397251
38 4 0.77451 0.846363 0.206978
39 4 0.557495 0.475961 0.205553
8 3 0.310915 0.961342 0.36482
11 3 0.132297 0.0584261 0.479884
22 2 0.49627 0.125621 0.386176
45 1 0.0539977 0.629599 0.455401
12 3 0.101706 0.0117526 0.36707
17 4 0.19431 0.945726 0.225418
15 4 0.382454 0.92589 0.308663
28 2 0.588734 0.936181 0.32586
46 1 0.920707 0.650919 0.430299
49 2 0.879614 0.571047 0.459263
19 4 0.00986909 -0.00318111 0.336565
24 1 0.626863 0.989899 0.39326
41 4 0.622023 0.555825 0.0263496
27 2 0.682149 0.0561323 0.345559
40 4 0.72667 0.741181 0.0179034
14 1 0.534479 0.0640777 0.449978
50 2 0.915852 0.661815 0.336957
7 3 0.334209 0.0166503 0.470936
47 2 0.112569 0.582808 0.392296
43 2 0.904623 0.849762 0.447174
1 1 0.456298 0.00663348 0.632295
2 1 0.532074 0.925431 0.68769
3 2 0.459301 0.0975877 0.668692
4 2 0.373328 0.978904 0.662576
5 2 0.521472 0.932347 0.776047
6 2 0.505177 0.834962 0.68294
48 2 0.0424381 0.576262 0.526952
25 2 0.713275 0.9372 0.555045
9 3 0.242236 0.0773972 0.531258
18 4 0.0689705 0.0862751 0.541473
21 2 0.576442 0.129838 0.506736
44 2 0.876921 0.782973 0.568454
13 1 0.448836 0.989697 0.511016
16 4 0.267898 0.116433 0.605244
42 2 0.682484 0.746651 0.506304
20 2 0.45759 0.898262 0.491298
ITEM: TIMESTEP
800
ITEM: NUMBER OF ATOMS
50
ITEM: BOX BOUNDS pp pp pp
-5.79054 5.79054
-5.79054 5.79054
-5.79054 5.79054
ITEM: ATOMS id type xs ys zs
23 1 0.728292 0.947744 0.446734
10 3 0.17543 0.903414 0.30377
26 2 0.776293 0.0178703 0.412098
29 3 0.741699 0.760111 0.297894
30 3 0.737962 0.641027 0.299488
31 3 0.699401 0.805337 0.1938
32 3 0.715595 0.577816 0.200769
33 3 0.693174 0.748494 0.0898869
34 3 0.677261 0.63141 0.0953078
35 1 0.796674 0.833233 0.402237
36 1 0.928477 0.850813 0.407157
37 4 0.773977 0.601566 0.380091
38 4 0.723443 0.904502 0.190047
39 4 0.70861 0.481722 0.194067
8 3 0.26597 0.899587 0.378035
11 3 0.148643 0.102131 0.35523
22 2 0.470386 0.0678226 0.366205
18 4 0.107598 0.18986 0.344811
12 3 0.121402 0.0120495 0.277409
17 4 0.139885 0.829759 0.255839
15 4 0.303338 0.814985 0.388177
28 2 0.57693 0.846391 0.462672
46 1 0.991301 0.759343 0.503104
43 2 0.958205 0.823478 0.318927
19 4 0.056585 0.0149607 0.205257
24 1 0.594829 0.931584 0.419452
41 4 0.681231 0.590461 0.00813348
27 2 0.5943 0.906187 0.320014
40 4 0.68232 0.795346 0.00652217
14 1 0.509425 0.0338147 0.450469
50 2 0.97626 0.672064 0.482449
7 3 0.291344 0.992206 0.460723
44 2 0.955985 0.933645 0.425689
9 3 0.219446 0.0935071 0.463175
42 2 0.770159 0.782694 0.475064
1 1 0.38439 0.0813818 0.63914
2 1 0.50087 0.0513836 0.69768
3 2 0.390667 0.177128 0.621692
4 2 0.304405 0.0704339 0.683937
5 2 0.523114 0.1231 0.759511
6 2 0.480696 0.96186 0.7421
48 2 0.114832 0.869624 0.583177
25 2 0.719587 0.952265 0.537295
49 2 0.931552 0.757585 0.578603
13 1 0.404938 0.994553 0.532072
16 4 0.236153 0.169047 0.50561
20 2 0.42641 0.907736 0.564012
47 2 0.139735 0.71979 0.593828
45 1 0.114568 0.789525 0.53424
21 2 0.554896 0.109886 0.488497
ITEM: TIMESTEP
900
ITEM: NUMBER OF ATOMS
50
ITEM: BOX BOUNDS pp pp pp
-5.79054 5.79054
-5.79054 5.79054
-5.79054 5.79054
ITEM: ATOMS id type xs ys zs
23 1 0.692176 0.938631 0.428935
10 3 0.219221 0.916871 0.237949
26 2 0.657523 0.975363 0.353531
29 3 0.811741 0.792178 0.284647
30 3 0.837552 0.677811 0.277706
31 3 0.767673 0.842649 0.18685
32 3 0.800749 0.615933 0.181006
33 3 0.739165 0.783626 0.083199
34 3 0.753065 0.668107 0.0856319
35 1 0.778803 0.837573 0.410258
36 1 0.900563 0.87327 0.449725
37 4 0.883763 0.636329 0.349189
38 4 0.745124 0.943294 0.184055
39 4 0.812207 0.517482 0.177271
8 3 0.295822 0.909324 0.33835
11 3 0.207466 0.109144 0.256424
22 2 0.503344 0.00652789 0.375736
18 4 0.161088 0.17968 0.223805
12 3 0.169779 0.0123712 0.194874
17 4 0.201576 0.835145 0.192509
15 4 0.346116 0.834588 0.358764
9 3 0.26277 0.117517 0.361925
42 2 0.752929 0.7576 0.459024
43 2 0.960839 0.800746 0.426806
19 4 0.113513 0.0247452 0.120982
21 2 0.548924 0.116225 0.466735
41 4 0.737276 0.619355 0.00621575
16 4 0.257384 0.192711 0.407188
40 4 0.693478 0.820065 0.0092248
14 1 0.508176 0.0265379 0.469468
44 2 0.915088 0.958206 0.422834
7 3 0.298708 0.00985519 0.40444
25 2 0.747938 -7.76538e-05 0.452239
1 1 0.348382 0.115688 0.585297
2 1 0.445527 0.158187 0.667345
3 2 0.340965 0.195453 0.540559
4 2 0.259654 0.104671 0.607495
5 2 0.434493 0.203418 0.743201
6 2 0.498474 0.0880497 0.711042
48 2 0.0787614 0.854558 0.689029
46 1 0.901574 0.859381 0.591729
49 2 0.825965 0.913496 0.632883
13 1 0.381366 0.0121764 0.510541
45 1 0.0218554 0.905554 0.634651
20 2 0.366859 0.92455 0.547291
47 2 0.0762566 0.921084 0.557415
28 2 0.614689 0.953033 0.615512
50 2 0.910284 0.773603 0.621274
24 1 0.594791 0.9341 0.520529
27 2 0.54228 0.847796 0.521979
ITEM: TIMESTEP
1000
ITEM: NUMBER OF ATOMS
50
ITEM: BOX BOUNDS pp pp pp
-5.79054 5.79054
-5.79054 5.79054
-5.79054 5.79054
ITEM: ATOMS id type xs ys zs
23 1 0.687278 0.991574 0.387264
10 3 0.244263 0.894765 0.230163
26 2 0.695843 0.0310532 0.308278
29 3 0.81794 0.822608 0.298536
30 3 0.84937 0.706877 0.316303
31 3 0.837795 0.87469 0.193245
32 3 0.880512 0.649049 0.219643
33 3 0.890025 0.819969 0.0999659
34 3 0.89574 0.701461 0.113077
35 1 0.764258 0.881664 0.406765
24 1 0.559556 0.982831 0.423254
37 4 0.827669 0.657317 0.392768
38 4 0.816837 0.970506 0.177457
39 4 0.899955 0.551001 0.227463
8 3 0.292263 0.929456 0.33595
11 3 0.248815 0.0922157 0.168278
22 2 0.539526 0.159556 0.377581
18 4 0.246301 0.147917 0.102415
12 3 0.212888 0.981783 0.146466
17 4 0.198292 0.813206 0.223296
15 4 0.304587 0.872402 0.415179
9 3 0.312846 0.137121 0.26326
42 2 0.707352 0.820335 0.444993
13 1 0.381849 0.084567 0.465003
19 4 0.160864 0.963138 0.0748116
7 3 0.322443 0.0517802 0.353195
25 2 0.716364 0.0657851 0.427889
16 4 0.33122 0.229908 0.28184
27 2 0.521802 0.921576 0.363198
14 1 0.511839 0.104902 0.447133
44 2 0.945511 0.901319 0.464283
41 4 0.901119 0.649782 0.0312475
40 4 0.923336 0.864112 0.018306
20 2 0.384132 1.00106 0.508302
1 1 0.313389 0.169221 0.55313
2 1 0.343741 0.103626 0.673412
3 2 0.345954 0.260349 0.545755
4 2 0.222028 0.144447 0.53389
5 2 0.345153 0.165749 0.744804
6 2 0.269194 0.0462705 0.668612
48 2 0.0257939 1.00091 0.676829
46 1 0.850903 0.972896 0.598582
49 2 0.858808 0.0672399 0.564238
43 2 0.85405 0.784873 0.528636
45 1 0.951411 0.94252 0.687388
36 1 0.858664 0.880399 0.506964
47 2 0.918067 0.92917 0.778009
28 2 0.562617 0.931222 0.508929
50 2 0.772527 0.976017 0.647095
21 2 0.56783 0.125902 0.516003
ITEM: TIMESTEP
1100
ITEM: NUMBER OF ATOMS
50
ITEM: BOX BOUNDS pp pp pp
-5.79054 5.79054
-5.79054 5.79054
-5.79054 5.79054
ITEM: ATOMS id type xs ys zs
23 1 0.706706 0.0316269 0.356466
10 3 0.2602 0.904525 0.208322
26 2 0.736238 0.0693225 0.278995
29 3 0.863261 0.857757 0.309612
30 3 0.854656 0.734593 0.306517
31 3 0.932752 0.909789 0.2192
32 3 0.941391 0.681497 0.245352
33 3 0.00274936 0.847927 0.145734
34 3 0.01959 0.736588 0.170476
35 1 0.792639 0.930843 0.398155
24 1 0.571797 0.0213848 0.35452
37 4 0.787146 0.681186 0.344376
38 4 0.926867 1.00203 0.194893
39 4 0.954154 0.584239 0.260757
8 3 0.258374 0.959506 0.318105
11 3 0.305298 0.0918335 0.127573
22 2 0.5321 0.195447 0.404214
18 4 0.313705 0.138808 0.0496664
12 3 0.259904 0.976379 0.114304
17 4 0.231848 0.813444 0.219091
15 4 0.254788 0.898342 0.393921
9 3 0.349896 0.134278 0.239371
42 2 0.746482 0.855508 0.440719
13 1 0.366057 0.0837276 0.435462
19 4 0.239677 0.948991 0.0306518
7 3 0.325192 0.0543714 0.329907
25 2 0.710977 0.106567 0.421945
16 4 0.379646 0.228046 0.257394
27 2 0.555277 0.0176369 0.266637
14 1 0.500746 0.109587 0.430176
44 2 0.92374 0.0529012 0.46599
41 4 0.0791876 0.677359 0.125726
40 4 0.059239 0.886633 0.079837
28 2 0.551997 0.936163 0.39681
4 2 0.246268 0.234707 0.409842
1 1 0.300244 0.195977 0.480036
3 2 0.356137 0.268713 0.488797
20 2 0.369577 0.00670837 0.484662
36 1 0.865781 0.976334 0.50997
2 1 0.224651 0.172427 0.588629
21 2 0.534453 0.108943 0.516286
50 2 0.700484 0.976291 0.587795
5 2 0.197366 0.258333 0.622153
6 2 0.140163 0.124492 0.577219
48 2 0.841111 0.924852 0.778126
46 1 0.783071 0.00973283 0.610281
49 2 0.76337 0.103623 0.602903
43 2 0.928135 0.916933 0.524507
45 1 0.818247 0.012413 0.740939
47 2 0.885625 0.0789728 0.758389
ITEM: TIMESTEP
1200
ITEM: NUMBER OF ATOMS
50
ITEM: BOX BOUNDS pp pp pp
-5.79054 5.79054
-5.79054 5.79054
-5.79054 5.79054
ITEM: ATOMS id type xs ys zs
23 1 0.71769 0.0208371 0.337158
10 3 0.335876 0.901085 0.162746
26 2 0.732825 0.985358 0.25511
29 3 0.889102 0.897388 0.370823
30 3 0.879171 0.774436 0.354715
31 3 0.937486 0.970412 0.281868
32 3 0.964799 0.742838 0.274151
33 3 0.982061 0.924765 0.180699
34 3 0.986598 0.803572 0.176018
35 1 0.788293 0.963146 0.436795
24 1 0.589674 0.00399177 0.339641
37 4 0.837455 0.712165 0.407356
38 4 0.93159 0.0632031 0.293392
39 4 0.984684 0.646336 0.263486
8 3 0.328269 0.944048 0.270714
11 3 0.323167 0.0974359 0.0916521
22 2 0.551291 0.169794 0.282461
18 4 0.308817 0.153294 0.0127716
12 3 0.34149 0.980861 0.0693565
17 4 0.307523 0.814518 0.147626
15 4 0.327124 0.877343 0.339357
9 3 0.347124 0.142179 0.200392
42 2 0.736248 0.886525 0.472145
13 1 0.391936 0.11318 0.397796
20 2 0.401629 0.0403946 0.459406
7 3 0.357298 0.0646059 0.287416
25 2 0.742321 0.11812 0.332849
16 4 0.37355 0.235809 0.225874
27 2 0.564494 0.968079 0.263722
14 1 0.533145 0.121574 0.366549
1 1 0.32998 0.226586 0.440546
41 4 0.041045 0.766497 0.114021
40 4 0.0062755 0.975561 0.107162
28 2 0.569729 0.949683 0.416137
4 2 0.376552 0.310101 0.411434
6 2 0.197867 0.240123 0.324324
21 2 0.572461 0.155161 0.439214
2 1 0.200724 0.239355 0.416547
5 2 0.166679 0.323567 0.449366
36 1 0.825608 0.0446212 0.537285
47 2 0.791462 0.00320656 0.810032
45 1 0.78688 0.0802738 0.757219
50 2 0.701652 0.958731 0.639719
19 4 0.337335 0.961316 0.987298
3 2 0.349308 0.212646 0.525911
48 2 0.761681 0.164677 0.79988
46 1 0.736869 0.0456286 0.635932
49 2 0.661627 0.102804 0.624762
43 2 0.895024 0.996811 0.568978
44 2 0.860487 0.139233 0.500635
ITEM: TIMESTEP
1300
ITEM: NUMBER OF ATOMS
50
ITEM: BOX BOUNDS pp pp pp
-5.79054 5.79054
-5.79054 5.79054
-5.79054 5.79054
ITEM: ATOMS id type xs ys zs
23 1 0.704166 0.0842088 0.392284
10 3 0.321536 0.904388 0.115482
26 2 0.724295 0.0803594 0.307832
29 3 0.895676 0.942024 0.377842
30 3 0.888937 0.828504 0.335071
31 3 0.987444 0.0127231 0.343004
32 3 0.997415 0.790832 0.296312
33 3 0.0696244 0.975607 0.258611
34 3 0.0761243 0.861156 0.243334
35 1 0.795638 0.98914 0.442055
24 1 0.576759 0.0475437 0.408846
37 4 0.811023 0.771459 0.358895
38 4 -0.00569598 0.103609 0.37227
39 4 0.0165081 0.704021 0.261675
8 3 0.360408 0.966494 0.207585
2 1 0.181384 0.270075 0.362361
22 2 0.549334 0.211434 0.353456
5 2 0.153322 0.355965 0.390549
12 3 0.319127 0.960968 0.0055901
17 4 0.312391 0.818308 0.137248
15 4 0.369934 0.91939 0.287936
9 3 0.37919 0.142535 0.0957886
42 2 0.736049 0.919477 0.476655
13 1 0.366535 0.14351 0.335145
20 2 0.318476 0.0833672 0.397348
7 3 0.373858 0.0890438 0.205486
25 2 0.722921 0.174333 0.421938
16 4 0.399251 0.237944 0.0718218
27 2 0.563414 0.99246 0.33961
14 1 0.498073 0.153905 0.397386
1 1 0.314206 0.269857 0.339426
41 4 0.141918 0.822149 0.195898
40 4 0.133316 0.0368289 0.231698
3 2 0.377971 0.317713 0.38445
4 2 0.322489 0.308806 0.249217
6 2 0.151886 0.243813 0.27776
21 2 0.499836 0.195165 0.475582
28 2 0.565644 0.989967 0.483686
36 1 0.840008 0.0273467 0.561987
47 2 0.76924 0.244758 0.697129
45 1 0.77493 0.163788 0.742524
50 2 0.702641 0.990659 0.68943
19 4 0.282912 0.925215 0.937253
44 2 0.883172 0.115371 0.54001
48 2 0.863517 0.15271 0.781244
46 1 0.747699 0.0642738 0.652009
49 2 0.682848 0.116926 0.607062
43 2 0.907555 0.972454 0.598707
18 4 0.366655 0.108429 0.904805
11 3 0.364978 0.0740812 0.994656
ITEM: TIMESTEP
1400
ITEM: NUMBER OF ATOMS
50
ITEM: BOX BOUNDS pp pp pp
-5.79054 5.79054
-5.79054 5.79054
-5.79054 5.79054
ITEM: ATOMS id type xs ys zs
23 1 0.703795 0.145975 0.402938
10 3 0.370437 0.910317 0.068205
26 2 0.764935 0.185114 0.35529
29 3 0.866532 0.989358 0.401521
30 3 0.856313 0.87908 0.363407
31 3 0.975671 0.0500072 0.389979
32 3 0.969701 0.823217 0.340701
33 3 0.073301 0.000910879 0.338071
34 3 0.0743279 0.880381 0.330239
35 1 0.763979 0.0472562 0.467141
24 1 0.600471 0.101002 0.342391
37 4 0.775934 0.830034 0.379855
38 4 0.97719 0.136329 0.433329
39 4 0.97618 0.730641 0.34309
8 3 0.375189 0.993109 0.158927
2 1 0.203477 0.286166 0.271464
22 2 0.585374 0.219757 0.21356
5 2 0.162657 0.353843 0.326499
28 2 0.539508 0.057693 0.395642
17 4 0.368354 0.819829 0.0922842
15 4 0.36476 0.944495 0.241455
9 3 0.39344 0.153221 0.0314814
21 2 0.543021 0.285145 0.316647
13 1 0.391947 0.176344 0.257629
20 2 0.366825 0.104989 0.31894
7 3 0.373944 0.114094 0.146849
25 2 0.676126 0.208894 0.469384
16 4 0.413348 0.244972 0.02779
27 2 0.637109 0.0442187 0.278479
14 1 0.527974 0.204335 0.283576
1 1 0.331483 0.292595 0.283602
41 4 0.150928 0.835594 0.30233
40 4 0.148397 0.047835 0.317789
3 2 0.344667 0.312947 0.376727
4 2 0.369159 0.364903 0.241474
6 2 0.166715 0.286794 0.188611
36 1 0.818862 0.0688576 0.590692
47 2 0.858015 0.120302 0.835995
45 1 0.82964 0.180143 0.772031
50 2 0.714538 0.0551736 0.740315
19 4 0.411177 0.89865 0.889666
44 2 0.893351 0.134003 0.589126
48 2 0.779461 0.240522 0.82305
46 1 0.751954 0.120177 0.684148
49 2 0.681226 0.165347 0.641731
43 2 0.85147 0.980379 0.619904
18 4 0.467124 0.113688 0.861006
11 3 0.427184 0.0762374 0.947979
12 3 0.401515 0.953199 0.956177
42 2 0.701154 0.987906 0.491605
ITEM: TIMESTEP
1500
ITEM: NUMBER OF ATOMS
50
ITEM: BOX BOUNDS pp pp pp
-5.79054 5.79054
-5.79054 5.79054
-5.79054 5.79054
ITEM: ATOMS id type xs ys zs
23 1 0.732429 0.18815 0.405717
10 3 0.393017 0.948751 0.0313283
26 2 0.803894 0.225014 0.369498
29 3 0.860638 0.031762 0.455664
30 3 0.843117 0.914431 0.469555
31 3 0.958273 0.0712148 0.399029
32 3 0.912624 0.839337 0.398333
33 3 0.0355838 1.0008 0.32927
34 3 0.00035366 0.883674 0.315619
6 2 0.252974 0.19307 0.0784079
24 1 0.639193 0.154583 0.318717
37 4 0.761496 0.892075 0.511379
38 4 0.975786 0.165918 0.397917
39 4 0.907981 0.746073 0.406971
8 3 0.430022 0.0143984 0.125592
2 1 0.25243 0.271096 0.128222
22 2 0.616495 0.326372 0.220046
5 2 0.18268 0.340696 0.123433
28 2 0.584267 0.116981 0.372278
17 4 0.351797 0.866164 0.0331779
15 4 0.401018 0.995706 0.21225
9 3 0.50833 0.161463 0.0103146
21 2 0.519179 0.291163 0.333918
13 1 0.456364 0.210458 0.204934
20 2 0.42197 0.153093 0.276509
7 3 0.485772 0.122402 0.115952
25 2 0.682479 0.257505 0.450257
16 4 0.549365 0.24568 -0.0136952
27 2 0.671034 0.0930688 0.259793
14 1 0.565121 0.255444 0.258556
1 1 0.365868 0.309655 0.174174
41 4 0.0436399 0.826512 0.253094
40 4 0.112788 0.0386994 0.289976
3 2 0.345812 0.353262 0.253745
4 2 0.403745 0.357349 0.113437
36 1 0.814932 0.181141 0.614433
47 2 0.669396 0.138846 0.869614
45 1 0.737175 0.134945 0.802567
50 2 0.634024 0.196356 0.65236
19 4 0.405644 0.938127 0.850696
44 2 0.870814 0.257495 0.591868
48 2 0.808075 0.185359 0.829681
46 1 0.715894 0.211259 0.69403
49 2 0.728092 0.304926 0.717376
43 2 0.886528 0.126349 0.64787
18 4 0.469093 0.156788 0.833719
11 3 0.460381 0.100712 0.914767
12 3 0.415756 0.990168 0.917894
42 2 0.698 0.059329 0.537348
35 1 0.769653 0.107249 0.508101
ITEM: TIMESTEP
1600
ITEM: NUMBER OF ATOMS
50
ITEM: BOX BOUNDS pp pp pp
-5.79054 5.79054
-5.79054 5.79054
-5.79054 5.79054
ITEM: ATOMS id type xs ys zs
23 1 0.713855 0.279637 0.418026
10 3 0.457849 0.945038 3.25143e-05
26 2 0.784962 0.31013 0.3675
29 3 0.833008 0.0918597 0.461009
30 3 0.799485 0.985716 0.498368
31 3 0.922074 0.101301 0.376638
32 3 0.843006 0.889027 0.439948
33 3 0.993051 0.00898114 0.345896
34 3 0.952631 0.896469 0.381523
41 4 0.00291721 0.816855 0.360135
24 1 0.635712 0.209606 0.340476
4 2 0.452606 0.400059 0.102844
38 4 0.927935 0.179339 0.3268
39 4 0.802831 0.805371 0.467925
8 3 0.446001 0.0300048 0.0814338
2 1 0.310485 0.316587 0.0624153
22 2 0.669522 0.247678 0.152825
5 2 0.234879 0.372841 0.0944419
28 2 0.572122 0.16634 0.378947
17 4 0.444472 0.859273 0.0192206
15 4 0.426547 -0.00267883 0.16382
40 4 0.067241 0.0171229 0.285387
21 2 0.602271 0.358013 0.23843
13 1 0.482469 0.234423 0.176468
20 2 0.447887 0.186201 0.255112
7 3 0.488798 0.139505 0.0689368
25 2 0.661418 0.349703 0.439789
3 2 0.375769 0.371629 0.217692
27 2 0.691354 0.145213 0.294069
14 1 0.600251 0.265199 0.218148
1 1 0.410512 0.335298 0.137679
36 1 0.845944 0.260668 0.602559
47 2 0.822697 0.06036 0.716462
45 1 0.793484 0.119421 0.785709
50 2 0.733005 0.28397 0.729132
19 4 0.416737 0.928816 0.825254
44 2 0.843954 0.353435 0.579211
48 2 0.700788 0.123917 0.789057
46 1 0.814413 0.23168 0.725387
49 2 0.852757 0.287069 0.781409
43 2 0.936366 0.22785 0.59281
18 4 0.500917 0.126557 0.781225
11 3 0.495557 0.0953442 0.868199
12 3 0.447374 0.980145 0.893533
42 2 0.701104 0.151389 0.554345
16 4 0.559555 0.25588 0.943552
37 4 0.714666 0.973235 0.536613
9 3 0.533787 0.16632 0.956191
35 1 0.76873 0.194924 0.506875
6 2 0.325053 0.335654 0.971755
ITEM: TIMESTEP
1700
ITEM: NUMBER OF ATOMS
50
ITEM: BOX BOUNDS pp pp pp
-5.79054 5.79054
-5.79054 5.79054
-5.79054 5.79054
ITEM: ATOMS id type xs ys zs
23 1 0.704975 0.307655 0.380709
1 1 0.436741 0.382304 0.0833048
26 2 0.772735 0.321746 0.318665
29 3 0.80627 0.125287 0.460114
14 1 0.601707 0.281409 0.196865
31 3 0.913444 0.106944 0.407582
32 3 0.795617 0.920687 0.488549
33 3 0.96495 -0.00352704 0.387496
34 3 0.891803 0.900745 0.411072