ITEM: TIMESTEP
0
ITEM: NUMBER OF ATOMS
72
ITEM: BOX BOUNDS pp pp pp
-5.79054 5.79054
-5.79054 5.79054
-5.79054 5.79054
ITEM: ATOMS id type xs ys zs
1 1 0.372419 0.639113 0.313733
2 1 0.267566 0.558921 0.329905
3 2 0.433247 0.624406 0.384422
4 2 0.343876 0.728712 0.31992
5 2 0.295123 0.468867 0.334299
6 2 0.222379 0.579748 0.410057
7 3 0.350431 0.631065 0.0944968
8 3 0.333666 0.538708 0.0186434
9 3 0.291527 0.734608 0.0745553
13 1 0.433418 0.618242 0.19654
14 1 0.539536 0.699132 0.185808
15 4 0.379466 0.457867 0.0318793
16 4 0.30399 0.807833 0.1318
20 2 0.465806 0.529533 0.197889
21 2 0.592735 0.689955 0.263114
22 2 0.510782 0.788922 0.182332
23 1 0.713 0.75947 0.0602383
24 1 0.613658 0.671733 0.078023
25 2 0.67662 0.84658 0.05995
27 2 0.558873 0.67452 0.00126799
28 2 0.6479 0.583991 0.0836713
29 3 0.868122 0.633115 0.154336
30 3 0.862716 0.565039 0.253846
31 3 0.927504 0.591359 0.0578527
32 3 0.915479 0.456879 0.256728
33 3 0.980198 0.483231 0.0606598
34 3 0.974112 0.415896 0.160062
35 1 0.810353 0.751824 0.152138
36 1 0.898849 0.850152 0.131949
37 4 0.817368 0.596155 0.32989
39 4 0.910851 0.404471 0.33448
41 4 0.0149021 0.331438 0.161978
42 2 0.771414 0.767741 0.236541
43 2 0.941243 0.83903 0.0484008
44 2 0.852987 0.932596 0.128795
45 1 0.0734335 0.958849 0.209129
46 1 0.990742 0.855959 0.228548
47 2 0.116583 0.948081 0.125916
48 2 0.0235612 0.0388039 0.204282
49 2 0.947699 0.864736 0.312085
50 2 0.0404975 0.775695 0.230477
51 3 0.262247 0.0526127 0.272174
52 3 0.377702 0.017862 0.277372
53 3 0.236532 0.165229 0.236955
54 3 0.465826 0.0939958 0.246781
55 3 0.324477 0.241288 0.206172
56 3 0.439272 0.205773 0.211104
57 1 0.166104 0.968506 0.305021
58 1 0.110456 0.00232093 0.421145
59 4 0.399698 0.931129 0.305513
60 4 0.147485 0.194319 0.233354
61 4 0.555415 0.0661048 0.25095
62 4 0.303262 0.328391 0.178467
63 4 0.508021 0.265197 0.187392
64 2 0.204284 0.882898 0.316005
65 2 0.0697047 0.0871819 0.415876
66 2 0.175326 0.00455642 0.489525
10 3 0.25898 0.549318 0.924889
11 3 0.216709 0.745221 0.980861
12 3 0.200359 0.652593 0.90598
17 4 0.246604 0.476964 0.866368
18 4 0.171359 0.826007 0.96594
19 4 0.142186 0.660967 0.832771
26 2 0.750072 0.745836 0.974504
38 4 0.933125 0.643139 0.979836
40 4 0.0261278 0.451422 0.985216
67 1 0.991591 0.938533 0.66919
68 1 0.999161 0.0699517 0.653395
69 2 0.0390641 0.894913 0.600351
70 2 0.901667 0.910037 0.665784
71 2 0.0893892 0.0974894 0.655614
72 2 0.953156 0.114167 0.722875
ITEM: TIMESTEP
100
ITEM: NUMBER OF ATOMS
72
ITEM: BOX BOUNDS pp pp pp
-5.79054 5.79054
-5.79054 5.79054
-5.79054 5.79054
ITEM: ATOMS id type xs ys zs
1 1 0.356607 0.641052 0.314325
2 1 0.270209 0.543061 0.346483
3 2 0.424381 0.637648 0.375707
4 2 0.321346 0.724892 0.325313
5 2 0.316817 0.467238 0.37858
6 2 0.212927 0.563909 0.418443
7 3 0.341448 0.635606 0.0956258
8 3 0.333554 0.536888 0.0212136
9 3 0.280563 0.735704 0.0705821
13 1 0.422886 0.62873 0.196711
14 1 0.53921 0.700061 0.190527
15 4 0.382205 0.457273 0.0380807
16 4 0.284927 0.811539 0.125154
20 2 0.447842 0.537824 0.19643
21 2 0.590997 0.683725 0.268349
22 2 0.520746 0.795101 0.191607
23 1 0.710281 0.760222 0.0719921
24 1 0.614102 0.670497 0.0878149
25 2 0.663199 0.836482 0.0625202
65 2 0.00718052 0.170266 0.420734
28 2 0.650853 0.579949 0.0973469
29 3 0.875774 0.641312 0.159442
30 3 0.871514 0.570649 0.256055
31 3 0.934036 0.608539 0.056209
32 3 0.923594 0.465079 0.252548
33 3 0.972853 0.495551 0.0487162
34 3 0.969567 0.424368 0.148796
35 1 0.803525 0.755744 0.17195
36 1 0.873369 0.872788 0.15854
37 4 0.831137 0.601997 0.335593
39 4 0.914443 0.406398 0.324675
41 4 0.00476012 0.337246 0.14796
42 2 0.759403 0.760277 0.254875
43 2 0.906849 0.868536 0.0702836
44 2 0.820435 0.942713 0.13338
45 1 0.0184571 0.00965309 0.275714
46 1 0.972827 0.885977 0.250479
47 2 0.0332284 0.0463501 0.194316
48 2 0.941682 0.0555719 0.309998
49 2 0.939339 0.854166 0.335111
50 2 0.0446847 0.821811 0.236943
51 3 0.226534 0.0725592 0.30733
52 3 0.32431 0.0103489 0.304337
53 3 0.210202 0.189381 0.256464
54 3 0.428298 0.0562907 0.2586
55 3 0.291565 0.23782 0.183931
56 3 0.402411 0.172945 0.196764
57 1 0.118929 0.0238768 0.372687
58 1 0.0657407 0.112761 0.467832
59 4 0.329118 0.928272 0.354353
60 4 0.132364 0.23681 0.275076
61 4 0.500151 0.996979 0.264291
62 4 0.268973 0.302642 0.118205
63 4 0.469698 0.189622 0.132165
64 2 0.15559 0.951157 0.415162
27 2 0.564579 0.671081 0.00346633
70 2 0.867991 0.919388 0.478237
10 3 0.271732 0.544093 0.917646
11 3 0.210611 0.739562 0.972167
12 3 0.211721 0.646568 0.896392
17 4 0.26234 0.470205 0.860831
18 4 0.158243 0.8147 0.951918
19 4 0.155569 0.649851 0.822199
26 2 0.752591 0.755708 0.992368
38 4 0.934363 0.666063 0.982035
40 4 0.00473533 0.470763 0.96505
67 1 0.932881 0.942144 0.547227
68 1 0.975734 0.0716618 0.551546
69 2 0.986631 0.873591 0.570488
66 2 0.121399 0.172219 0.523351
71 2 0.0370648 0.0701553 0.627866
72 2 0.924399 0.147319 0.57109
ITEM: TIMESTEP
200
ITEM: NUMBER OF ATOMS
72
ITEM: BOX BOUNDS pp pp pp
-5.79054 5.79054
-5.79054 5.79054
-5.79054 5.79054
ITEM: ATOMS id type xs ys zs
1 1 0.355086 0.6238 0.320465
2 1 0.250248 0.546536 0.308763
3 2 0.405521 0.601403 0.394802
4 2 0.323395 0.708934 0.328482
5 2 0.282843 0.458558 0.319269
6 2 0.194245 0.572004 0.380061
7 3 0.342191 0.6292 0.0994304
8 3 0.347479 0.540293 0.0193328
9 3 0.274327 0.728521 0.0777829
13 1 0.420585 0.618055 0.20397
14 1 0.519377 0.708148 0.204334
15 4 0.406115 0.46627 0.0286327
16 4 0.274212 0.801039 0.136312
20 2 0.463072 0.532923 0.20366
21 2 0.562916 0.698108 0.286053
22 2 0.473535 0.792598 0.199173
23 1 0.692101 0.797014 0.0903671
24 1 0.608879 0.698889 0.106829
25 2 0.640982 0.872492 0.103166
65 2 -0.0532683 0.163954 0.480304
28 2 0.653701 0.616123 0.128573
29 3 0.863926 0.651588 0.164598
30 3 0.869766 0.570183 0.255206
31 3 0.919389 0.626232 0.0626773
32 3 0.934315 0.465428 0.240139
33 3 0.980881 0.520758 0.0485814
34 3 0.99682 0.446889 0.143617
35 1 0.801007 0.769876 0.168069
36 1 0.878029 0.871755 0.145966
37 4 0.822044 0.591495 0.335008
39 4 0.939707 0.397392 0.30367
41 4 0.0456791 0.367017 0.136187
42 2 0.785184 0.779164 0.25977
43 2 0.917428 0.861989 0.0531731
44 2 0.817198 0.943024 0.135561
45 1 0.986221 0.0358358 0.2806
46 1 0.958443 0.90666 0.249442
47 2 -0.0183839 0.0893643 0.216348
48 2 0.898279 0.0515071 0.315766
49 2 0.940076 0.864514 0.326687
50 2 0.0324137 0.85497 0.213429
51 3 0.192173 0.0835106 0.312207
52 3 0.283743 0.00227325 0.312533
53 3 0.189775 0.184836 0.262046
54 3 0.377195 0.0314699 0.254235
55 3 0.289148 0.229107 0.201835
56 3 0.385337 0.143936 0.197808
57 1 0.0788405 0.0563815 0.374195
58 1 0.0316741 0.115154 0.490734
59 4 0.271904 0.910038 0.340909
60 4 0.109847 0.238605 0.282784
61 4 0.439979 0.966526 0.253202
62 4 0.290357 0.313841 0.159977
63 4 0.457164 0.159404 0.133327
64 2 0.107791 0.974341 0.401306
27 2 0.556039 0.693606 0.0248625
26 2 0.715561 0.796007 0.00217202
69 2 0.801586 0.995394 0.501138
10 3 0.280695 0.546678 0.922621
11 3 0.209065 0.731262 0.979915
12 3 0.209244 0.640778 0.900484
17 4 0.287989 0.474976 0.865453
18 4 0.152915 0.804354 0.962771
19 4 0.152885 0.638032 0.825908
72 2 1.00037 0.0806951 0.645665
38 4 0.911253 0.685345 0.991115
40 4 0.0210373 0.504431 0.966922
67 1 0.839336 0.0329844 0.567277
68 1 0.969147 0.0355864 0.57221
70 2 0.819147 -0.0426926 0.631821
71 2 0.00683704 0.952515 0.570029
66 2 0.0856832 0.185403 0.530098
ITEM: TIMESTEP
300
ITEM: NUMBER OF ATOMS
72
ITEM: BOX BOUNDS pp pp pp
-5.79054 5.79054
-5.79054 5.79054
-5.79054 5.79054
ITEM: ATOMS id type xs ys zs
1 1 0.344286 0.624418 0.327239
2 1 0.238848 0.545645 0.333284
3 2 0.400161 0.613699 0.404849
4 2 0.312172 0.713081 0.333458
5 2 0.256247 0.453841 0.346976
6 2 0.174581 0.573973 0.39662
7 3 0.339314 0.616583 0.096624
8 3 0.34514 0.533229 0.009015
9 3 0.266922 0.710606 0.0858604
13 1 0.407053 0.595672 0.208566
14 1 0.506661 0.682826 0.194958
15 4 0.39883 0.454007 0.0164093
16 4 0.261363 0.775115 0.15344
20 2 0.445399 0.510229 0.212937
21 2 0.549344 0.69532 0.274338
22 2 0.464557 0.766658 0.178513
23 1 0.672033 0.775105 0.073187
24 1 0.590263 0.664069 0.0888935
25 2 0.619272 0.851578 0.0859541
65 2 0.0248294 0.205245 0.495377
28 2 0.635266 0.578619 0.0954025
29 3 0.84716 0.674247 0.152826
30 3 0.873326 0.608535 0.250065
31 3 0.902296 0.645892 0.046864
32 3 0.936011 0.503898 0.239193
33 3 0.974508 0.548979 0.0417249
34 3 0.981826 0.472268 0.133049
35 1 0.771933 0.781477 0.166362
36 1 0.85213 0.893574 0.15263
37 4 0.839252 0.641198 0.333871
39 4 0.958316 0.443381 0.308382
41 4 0.0290764 0.391349 0.122279
42 2 0.734669 0.778381 0.255459
43 2 0.877031 0.90948 0.0589524
44 2 0.797341 0.954983 0.184212
45 1 0.94696 0.012912 0.323972
46 1 0.951084 0.909955 0.242499
47 2 0.935886 0.0929189 0.285138
48 2 0.871562 0.982278 0.382205
49 2 0.965857 0.846218 0.29564
50 2 0.0393682 0.903091 0.193543
51 3 0.16901 0.0619275 0.338351
52 3 0.266418 0.984505 0.316442
53 3 0.164219 0.174298 0.285094
54 3 0.356285 0.0353842 0.249158
55 3 0.258227 0.227258 0.245478
56 3 0.354409 0.162088 0.23178
57 1 0.055342 0.025773 0.394885
58 1 0.0354314 0.114411 0.498149
59 4 0.245829 0.891306 0.319412
60 4 0.0850111 0.208527 0.26296
61 4 0.437655 0.993504 0.256388
62 4 0.255714 0.312821 0.212231
63 4 0.43043 0.208507 0.202452
64 2 0.0638618 0.938673 0.426001
27 2 0.539753 0.645305 0.00927737
10 3 0.279725 0.550202 0.909369
11 3 0.202713 0.72832 0.984229
12 3 0.218147 0.654451 0.889132
17 4 0.284364 0.483758 0.846206
18 4 0.145815 0.803736 0.980507
19 4 0.1744 0.667968 0.808229
72 2 0.978688 0.107983 0.677583
38 4 0.893988 0.706923 0.976093
40 4 0.015891 0.532661 0.961295
67 1 0.842582 0.148135 0.544012
68 1 0.949852 0.0892735 0.594104
70 2 0.77762 0.0822147 0.559176
71 2 0.937796 -0.00140952 0.594847
66 2 0.115099 0.118881 0.534104
26 2 0.706186 0.794551 0.991023
69 2 0.820524 0.220852 0.598544
ITEM: TIMESTEP
400
ITEM: NUMBER OF ATOMS
72
ITEM: BOX BOUNDS pp pp pp
-5.79054 5.79054
-5.79054 5.79054
-5.79054 5.79054
ITEM: ATOMS id type xs ys zs
1 1 0.329638 0.607918 0.315938
2 1 0.232787 0.517692 0.325694
3 2 0.396732 0.589887 0.382115
4 2 0.2993 0.698069 0.325114
5 2 0.27078 0.4301 0.32567
6 2 0.180008 0.527105 0.404619
7 3 0.326908 0.613285 0.101202
8 3 0.334426 0.528797 0.0150861
9 3 0.26287 0.718071 0.086486
13 1 0.409349 0.602649 0.202546
14 1 0.506398 0.696717 0.209707
15 4 0.39835 0.458161 0.0266754
16 4 0.2739 0.786799 0.149628
20 2 0.457086 0.520467 0.19345
21 2 0.563273 0.678724 0.278093
22 2 0.47329 0.78313 0.229632
23 1 0.664571 0.791025 0.0950122
24 1 0.563828 0.692149 0.0943603
25 2 0.627172 0.875017 0.102902
65 2 0.0345317 0.188978 0.491859
28 2 0.606443 0.608756 0.0777196
29 3 0.854189 0.693796 0.159071
30 3 0.880375 0.625828 0.253088
31 3 0.904632 0.67002 0.0497042
32 3 0.942502 0.525489 0.239391
33 3 0.969916 0.569 0.0361612
34 3 0.982894 0.494547 0.132678
35 1 0.770679 0.797632 0.176251
36 1 0.842157 0.914425 0.146259
37 4 0.853549 0.646959 0.342541
39 4 0.956288 0.469627 0.314286
41 4 0.0236085 0.412511 0.118588
42 2 0.730088 0.806584 0.262644
43 2 0.874047 0.904518 0.0583948
44 2 0.791173 0.983954 0.130425
45 1 0.920945 0.0107966 0.331954
46 1 0.941063 0.935463 0.226796
47 2 0.894748 0.101182 0.304436
48 2 0.839971 0.972148 0.379426
49 2 -0.0307065 0.863934 0.267038
50 2 1.00557 0.976905 0.170721
51 3 0.139504 0.0623506 0.345096
52 3 0.24102 -0.00384902 0.366857
53 3 0.131676 0.156166 0.261931
54 3 0.334442 0.0305723 0.292591
55 3 0.228058 0.198189 0.211674
56 3 0.319319 0.119714 0.210101
57 1 0.0302208 0.0267151 0.41134
27 2 0.499898 0.708971 0.0245072
59 4 0.250284 0.912558 0.415284
60 4 0.048879 0.201086 0.26602
61 4 0.420924 0.998566 0.317453
62 4 0.232307 0.280959 0.171277
63 4 0.397117 0.148283 0.172871
64 2 0.0566355 0.954169 0.449013
70 2 0.755162 0.218518 0.529882
26 2 0.710022 0.796092 0.008973
10 3 0.270751 0.546516 0.913077
11 3 0.204967 0.735158 0.981031
12 3 0.196175 0.640965 0.904418
17 4 0.280171 0.488392 0.842653
18 4 0.15991 0.815201 0.957166
19 4 0.146587 0.647529 0.826747
72 2 0.898957 0.0799834 0.659559
38 4 0.893307 0.728744 0.978151
40 4 -0.000636602 0.547393 0.95175
67 1 0.815699 0.210534 0.591786
68 1 0.892441 0.0983596 0.571355
58 1 0.0209701 0.103607 0.516814
71 2 0.84108 0.0226131 0.554168
66 2 0.0933332 0.0648936 0.572297
69 2 0.875807 0.271811 0.56134
ITEM: TIMESTEP
500
ITEM: NUMBER OF ATOMS
72
ITEM: BOX BOUNDS pp pp pp
-5.79054 5.79054
-5.79054 5.79054
-5.79054 5.79054
ITEM: ATOMS id type xs ys zs
1 1 0.342761 0.58922 0.326377
2 1 0.255876 0.491207 0.317335
3 2 0.404483 0.568578 0.399167
4 2 0.297696 0.665146 0.361813
5 2 0.310142 0.425769 0.276661
6 2 0.221061 0.458287 0.398816
7 3 0.330109 0.627162 0.101562
8 3 0.328556 0.535616 0.0197524
9 3 0.268566 0.728904 0.0773004
13 1 0.40685 0.6243 0.21301
14 1 0.496715 0.722576 0.224323
15 4 0.381731 0.456519 0.0295131
16 4 0.276172 0.802068 0.135035
20 2 0.46727 0.552456 0.202818
21 2 0.541903 0.720234 0.305029
22 2 0.459276 0.808131 0.21981
23 1 0.642792 0.819029 0.101489
24 1 0.580037 0.706247 0.123238
25 2 0.586662 0.893049 0.106861
65 2 0.910247 0.209356 0.421124
28 2 0.64278 0.636173 0.130163
29 3 0.841123 0.711224 0.160412
30 3 0.867903 0.646055 0.259784
31 3 0.875235 0.673328 0.0542783
32 3 0.93889 0.549792 0.251887
33 3 0.936373 0.570645 0.0420327
34 3 0.971762 0.509942 0.138628
35 1 0.763061 0.818716 0.16387
36 1 0.832514 0.924471 0.136823
37 4 0.837 0.679035 0.342752
39 4 0.96425 0.509997 0.332689
41 4 0.0258339 0.436574 0.128337
42 2 0.744486 0.832954 0.255902
43 2 0.877471 0.907739 0.0540041
44 2 0.78214 -0.00012715 0.119715
45 1 0.896919 0.985844 0.33904
46 1 0.935226 0.952133 0.210749
47 2 0.820828 0.0488716 0.336484
48 2 0.859789 0.909529 0.391658
49 2 -0.00684243 0.880947 0.238854
50 2 0.98202 0.0210285 0.173384
51 3 0.111278 0.0784292 0.357187
52 3 0.201422 -0.0075157 0.374947
53 3 0.123249 0.153228 0.263265
54 3 0.296267 0.00676264 0.308002
55 3 0.230084 0.163097 0.19785
56 3 0.316194 0.0876632 0.222118
57 1 -0.00290442 0.0442242 0.409981
27 2 0.530537 0.681338 0.0485835
59 4 0.206473 0.945254 0.457774
60 4 0.076791 0.232773 0.262116
61 4 0.37174 0.963085 0.346639
62 4 0.240898 0.231099 0.134132
63 4 0.396203 0.0871296 0.178341
64 2 0.0117366 0.981506 0.46459
26 2 0.660704 0.797372 0.0086455
10 3 0.252852 0.548779 0.922751
11 3 0.201047 0.736678 0.97623
12 3 0.186718 0.646884 0.90165
17 4 0.240155 0.482099 0.861412
18 4 0.154679 0.817427 0.958948
19 4 0.127398 0.649024 0.830891
72 2 0.927826 0.0928799 0.65848
38 4 0.854812 0.723123 0.978723
40 4 0.964038 0.545139 0.957608
67 1 0.797413 0.210016 0.623509
68 1 0.871601 0.105672 0.590213
58 1 0.946995 0.147605 0.477044
71 2 0.822442 0.0276593 0.555291
66 2 0.0389729 0.17516 0.513676
69 2 0.818668 0.264985 0.699254
70 2 0.738472 0.237743 0.563817
ITEM: TIMESTEP
600
ITEM: NUMBER OF ATOMS
72
ITEM: BOX BOUNDS pp pp pp
-5.79054 5.79054
-5.79054 5.79054
-5.79054 5.79054
ITEM: ATOMS id type xs ys zs
1 1 0.336006 0.604973 0.327157
2 1 0.275038 0.497087 0.359451
3 2 0.402561 0.614503 0.396986
4 2 0.274248 0.676163 0.331493
5 2 0.325284 0.439116 0.414733
6 2 0.190295 0.509251 0.397522
7 3 0.313906 0.610109 0.0995889
8 3 0.303885 0.525226 0.0138297
9 3 0.258733 0.717875 0.0891224
13 1 0.393659 0.590225 0.206906
14 1 0.49446 0.686095 0.214102
15 4 0.353771 0.444173 0.0241225
16 4 0.261894 0.784023 0.154634
20 2 0.435638 0.505871 0.196805
21 2 0.554624 0.659134 0.282397
22 2 0.457747 0.76546 0.250571
23 1 0.642457 0.823621 0.0687369
24 1 0.558942 0.7135 0.0900834
25 2 0.590335 0.890902 0.0989692
65 2 0.952482 0.227455 0.454385
28 2 0.609891 0.641243 0.0581801
29 3 0.809682 0.71167 0.148454
30 3 0.847411 0.668203 0.254043
31 3 0.844594 0.649935 0.0479451
32 3 0.931531 0.575933 0.265109
33 3 0.922924 0.555516 0.0547831
34 3 0.965477 0.51822 0.161731
35 1 0.75079 0.824002 0.153817
36 1 0.826783 0.928837 0.131909
37 4 0.8274 0.719783 0.332478
39 4 0.963343 0.558309 0.352526
41 4 0.0299633 0.449555 0.160475
42 2 0.73173 0.839982 0.243535
43 2 0.868191 0.918458 0.0444355
44 2 0.76422 1.00694 0.127385
45 1 0.864403 0.0306326 0.325018
46 1 0.921168 0.954391 0.217251
47 2 0.809673 0.109349 0.32105
48 2 0.794765 0.981143 0.361931
49 2 0.969219 0.878622 0.251825
50 2 0.995937 -0.00952019 0.163197
51 3 0.0907206 0.0734025 0.360539
52 3 0.167792 0.978869 0.357187
53 3 0.131294 0.178004 0.306409
54 3 0.275558 1.00598 0.313083
55 3 0.236142 0.186714 0.249649
56 3 0.312965 0.101674 0.254408
57 1 0.971517 0.054655 0.414289
27 2 0.489034 0.730159 0.0295141
59 4 0.173788 0.892926 0.405976
60 4 0.0914281 0.252282 0.328037
61 4 0.339707 0.935103 0.32786
62 4 0.264406 0.266611 0.210793
63 4 0.402375 0.113503 0.222964
64 2 0.978384 -0.022855 0.463817
26 2 0.663491 0.841123 -0.0248801
58 1 0.947177 0.156921 0.501181
71 2 0.757288 0.174929 0.491288
10 3 0.23172 0.554925 0.919303
11 3 0.184639 0.738129 0.996869
12 3 0.176497 0.661971 0.90283
17 4 0.218235 0.491793 0.854582
18 4 0.133471 0.817876 0.996333
19 4 0.121349 0.681023 0.831552
72 2 0.801032 0.0559566 0.573954
38 4 0.815428 0.680197 0.964822
40 4 0.95635 0.50608 0.982794
67 1 0.822509 0.234198 0.65588
68 1 0.825057 0.150055 0.554595
70 2 0.78571 0.310947 0.621588
66 2 0.0272836 0.166928 0.547411
69 2 0.905043 0.245598 0.711804
ITEM: TIMESTEP
700
ITEM: NUMBER OF ATOMS
72
ITEM: BOX BOUNDS pp pp pp
-5.79054 5.79054
-5.79054 5.79054
-5.79054 5.79054
ITEM: ATOMS id type xs ys zs
1 1 0.357461 0.607257 0.324726
2 1 0.276444 0.512614 0.338665
3 2 0.435446 0.592084 0.377259
4 2 0.318685 0.686311 0.354161
5 2 0.233307 0.519336 0.422088
6 2 0.212263 0.538254 0.276195
7 3 0.302281 0.620326 0.108589
8 3 0.286399 0.527754 0.0324834
9 3 0.224766 0.717769 0.110482
13 1 0.401544 0.611316 0.196941
14 1 0.4957 0.712969 0.190691
15 4 0.334296 0.446606 0.0342831
16 4 0.235544 0.780815 0.178233
20 2 0.440261 0.529562 0.17568
21 2 0.554834 0.707093 0.264444
22 2 0.453442 0.795047 0.202461
23 1 0.645669 0.807178 0.0547205
24 1 0.56018 0.707827 0.0786395
25 2 0.598152 0.884043 0.0415073
65 2 0.977894 0.230869 0.506093
28 2 0.614065 0.630524 0.076922
29 3 0.816454 0.719881 0.159599
30 3 0.835842 0.669857 0.268292
31 3 0.852993 0.668701 0.0604826
32 3 0.893953 0.571517 0.276375
33 3 0.917378 0.567727 0.0685954
34 3 0.950217 0.528502 0.178286
35 1 0.733119 0.819728 0.150517
36 1 0.785302 0.937643 0.131733
37 4 0.795224 0.696993 0.351574
39 4 0.888358 0.524648 0.357375
41 4 -0.0106702 0.444862 0.189342
42 2 0.6812 0.834321 0.232049
43 2 0.812489 0.959031 0.0422533
44 2 0.711856 0.00494303 0.134419
45 1 0.849266 0.0609288 0.309389
46 1 0.88291 0.964191 0.211752
47 2 0.835074 0.149768 0.268164
48 2 0.774467 0.0255557 0.349426
49 2 0.925313 0.895035 0.251273
50 2 0.940951 1.00713 0.142592
51 3 0.0779876 0.0813652 0.341261
52 3 0.1478 0.984621 0.355547
53 3 0.130541 0.191644 0.315126
54 3 0.260353 0.998557 0.332133
55 3 0.247104 0.195549 0.286185
56 3 0.312568 0.0998841 0.291397
57 1 0.955531 0.0681717 0.410516
11 3 0.140065 0.726552 0.0227348
59 4 0.110745 0.894926 0.37308
60 4 0.0963568 0.277818 0.312013
61 4 0.317709 0.924106 0.33478
62 4 0.293611 0.264964 0.243471
63 4 0.408039 0.1063 0.279303
64 2 0.967783 0.986069 0.435554
71 2 0.745627 0.207297 0.473163
18 4 0.0847083 0.803251 0.0187251
10 3 0.210155 0.546113 0.943779
26 2 0.686464 0.796409 0.969659
12 3 0.143034 0.64617 0.930131
17 4 0.199797 0.483632 0.87757
58 1 0.936493 0.149051 0.520511
19 4 0.0919754 0.654787 0.853303
72 2 0.771222 0.0724966 0.551667
38 4 0.840717 0.701903 0.973369
40 4 0.939503 0.516338 0.992053
67 1 0.802025 0.248542 0.633613
68 1 0.798732 0.167566 0.535968
70 2 0.887794 0.290732 0.635027
66 2 0.977841 0.120175 0.599304
69 2 0.803807 0.205012 0.725668
27 2 0.502533 0.694668 1.00003
ITEM: TIMESTEP
800
ITEM: NUMBER OF ATOMS
72
ITEM: BOX BOUNDS pp pp pp
-5.79054 5.79054
-5.79054 5.79054
-5.79054 5.79054
ITEM: ATOMS id type xs ys zs
1 1 0.332114 0.620478 0.333238
2 1 0.245459 0.518243 0.337072
3 2 0.395704 0.604178 0.402235
4 2 0.283483 0.696012 0.352014
5 2 0.237776 0.461454 0.412961
6 2 0.161841 0.532045 0.295685
7 3 0.297987 0.633582 0.114102
8 3 0.287326 0.542247 0.0332894
9 3 0.21438 0.723647 0.112839
13 1 0.389935 0.626705 0.210113
14 1 0.495789 0.724347 0.210522
15 4 0.337726 0.463718 0.0291718
16 4 0.205972 0.788293 0.181214
20 2 0.435654 0.545018 0.193922
21 2 0.559584 0.708541 0.278772
22 2 0.453466 0.806376 0.21944
23 1 0.62789 0.835196 0.0650377
24 1 0.558038 0.72519 0.0977876
25 2 0.574968 0.912877 0.0681821
65 2 0.890999 0.260372 0.417939
28 2 0.607498 0.645647 0.0957259
29 3 0.789136 0.73328 0.175383
30 3 0.802352 0.688475 0.286346
31 3 0.835818 0.67058 0.0846341
32 3 0.849117 0.580139 0.299867
33 3 0.885683 0.567927 0.100501
34 3 0.890169 0.515974 0.206994
35 1 0.729131 0.85294 0.150998
36 1 0.826148 0.942841 0.108042
37 4 0.775674 0.733262 0.368565
39 4 0.864656 0.546429 0.385579
41 4 0.921574 0.429748 0.218928
42 2 0.676668 0.881413 0.226649
43 2 0.876959 0.899903 0.0403584
44 2 0.785863 0.0275901 0.0771877
45 1 0.869528 0.0495238 0.285946
46 1 0.921127 0.97046 0.199481
47 2 0.843106 0.13699 0.240834
48 2 0.782669 0.0219778 0.307657
49 2 0.969764 0.911502 0.238574
50 2 0.988415 0.0167556 0.140177
51 3 0.0748558 0.0820954 0.366471
52 3 0.142631 1.00491 0.417542
53 3 0.127371 0.187633 0.327235
54 3 0.242848 0.989418 0.353936
55 3 0.23229 0.174638 0.275084
56 3 0.293591 0.0754219 0.28719
57 1 0.94215 0.0680163 0.392638
11 3 0.134274 0.735213 0.0207971
59 4 0.111927 0.916036 0.442427
60 4 0.0755239 0.266075 0.304266
61 4 0.292471 0.911291 0.359339
62 4 0.265994 0.231705 0.20791
63 4 0.383504 0.0693851 0.249879
64 2 0.930891 0.992025 0.443254
71 2 0.706165 0.187895 0.465138
18 4 0.0756541 0.810197 0.0243654
58 1 0.894651 0.177831 0.458212
40 4 0.922298 0.519137 0.029609
27 2 0.486527 0.719242 0.0304271
10 3 0.209495 0.557759 0.942937
26 2 0.66591 0.815097 0.978663
12 3 0.138256 0.655423 0.929551
17 4 0.211175 0.495465 0.873665
69 2 0.865401 0.240045 0.663764
19 4 0.0858181 0.669545 0.854069
72 2 0.749741 0.0542596 0.52363
38 4 0.824231 0.697405 0.996319
66 2 0.940162 0.166024 0.53826
67 1 0.774558 0.22593 0.625753
68 1 0.767255 0.151732 0.514178
70 2 0.712057 0.296389 0.635367
ITEM: TIMESTEP
900
ITEM: NUMBER OF ATOMS
72
ITEM: BOX BOUNDS pp pp pp
-5.79054 5.79054
-5.79054 5.79054
-5.79054 5.79054
ITEM: ATOMS id type xs ys zs
1 1 0.320224 0.653005 0.329096
2 1 0.262656 0.538482 0.339969
3 2 0.372871 0.666116 0.406371
4 2 0.261076 0.722979 0.335476
5 2 0.23261 0.53114 0.429975
6 2 0.196616 0.521911 0.273934
7 3 0.29698 0.653023 0.117579
8 3 0.302182 0.567071 0.0304367
9 3 0.212453 0.739754 0.109688
13 1 0.384346 0.659392 0.21647
14 1 0.469661 0.762845 0.206365
15 4 0.356963 0.49308 0.0381063
16 4 0.206049 0.8049 0.176757
20 2 0.431708 0.581125 0.205994
21 2 0.53965 0.746677 0.267987
22 2 0.43409 0.844075 0.232939
23 1 0.624164 0.851313 0.0756629
24 1 0.513554 0.774599 0.0861323
25 2 0.591317 0.93941 0.0811778
65 2 0.839639 0.248906 0.39934
28 2 0.537576 0.690581 0.0566175
29 3 0.766788 0.72311 0.191652
30 3 0.762862 0.680791 0.306438
31 3 0.794681 0.633046 0.111229
32 3 0.817886 0.577389 0.339143
33 3 0.833332 0.521999 0.144608
34 3 0.854439 0.500409 0.258265
35 1 0.72317 0.847138 0.163768
36 1 0.819658 0.92104 0.0999798
37 4 0.722099 0.736276 0.375161
39 4 0.830513 0.546123 0.428593
41 4 0.906951 0.431384 0.288939
42 2 0.691362 0.884238 0.246604
43 2 0.856626 0.901365 0.0140411
44 2 0.77183 0.994809 0.0624772
45 1 0.843541 0.0562898 0.282041
46 1 0.898151 0.971203 0.195108
47 2 0.818764 0.129261 0.220068
48 2 0.770127 0.0267196 0.335612
49 2 0.916702 0.904005 0.258727
50 2 0.969636 0.0121001 0.145824
51 3 0.0649865 0.0807626 0.350599
52 3 0.127824 1.01055 0.41661
53 3 0.117411 0.159972 0.271983
54 3 0.23887 0.997606 0.38985
55 3 0.24 0.156987 0.258199
56 3 0.297093 0.0801561 0.328753
57 1 0.925863 0.081957 0.376782
11 3 0.143396 0.752854 0.0153771
59 4 0.076411 0.952102 0.480906
60 4 0.0532546 0.220481 0.228233
61 4 0.294093 0.935752 0.431933
62 4 0.294632 0.206275 0.20048
63 4 0.384263 0.0472161 0.302879
64 2 0.92334 -0.0045515 0.420567
38 4 0.788667 0.645511 0.0175478
18 4 0.0865191 0.828137 0.00969407
58 1 0.879386 0.181371 0.449634
40 4 0.877647 0.461295 0.0878336
27 2 0.439497 0.796917 0.0264789
10 3 0.225361 0.58131 0.938088
26 2 0.645829 0.851266 0.981428
12 3 0.144936 0.673182 0.925636
17 4 0.23089 0.515966 0.873093
69 2 0.625111 0.224006 0.531348
19 4 0.0958507 0.690857 0.850462
72 2 0.852456 0.135427 0.638471
70 2 0.67694 0.245388 0.656372
66 2 0.952407 0.232771 0.486398
67 1 0.708037 0.239157 0.572717
68 1 0.804424 0.141703 0.555171
71 2 0.773729 0.0576787 0.549383
ITEM: TIMESTEP
1000
ITEM: NUMBER OF ATOMS
72
ITEM: BOX BOUNDS pp pp pp
-5.79054 5.79054
-5.79054 5.79054
-5.79054 5.79054
ITEM: ATOMS id type xs ys zs
1 1 0.29961 0.693971 0.330536
2 1 0.259207 0.5805 0.383216
3 2 0.365069 0.736204 0.386468
4 2 0.220654 0.74233 0.320785
5 2 0.240977 0.60446 0.473092
6 2 0.180742 0.549831 0.340684
7 3 0.268029 0.664317 0.117736
8 3 0.278108 0.581022 0.0325868
9 3 0.183672 0.751795 0.106861
13 1 0.353837 0.677442 0.214752
14 1 0.447079 0.770753 0.183127
15 4 0.335317 0.50957 0.0427081
16 4 0.166554 0.814583 0.176281
20 2 0.395958 0.593616 0.219801
21 2 0.512335 0.777824 0.251943
22 2 0.409124 0.855175 0.171269
23 1 0.622141 0.819488 0.0521446
24 1 0.517101 0.741348 0.0761735
25 2 0.582801 0.90405 0.0356649
65 2 0.860081 0.226018 0.386677
28 2 0.553836 0.661516 0.0934357
29 3 0.738405 0.721302 0.194118
30 3 0.726589 0.699426 0.307439
31 3 0.776829 0.631048 0.121854
32 3 0.769173 0.598579 0.352333
33 3 0.787911 0.517806 0.165064
34 3 0.787147 0.5037 0.28544
35 1 0.708777 0.844735 0.153938
36 1 0.821094 0.912658 0.119164
37 4 0.706851 0.771268 0.368565
39 4 0.783607 0.588776 0.445084
41 4 0.825938 0.431932 0.32612
42 2 0.671372 0.897731 0.223885
43 2 0.873625 0.858905 0.0557961
44 2 0.795499 0.99615 0.073161
45 1 0.868185 0.0312413 0.295037
46 1 0.89398 0.93341 0.225708
47 2 0.874088 0.0977091 0.218457
48 2 0.773496 0.0350141 0.317315
49 2 0.912243 0.853018 0.282694
50 2 0.97703 0.951555 0.18562
51 3 0.0764142 0.0689071 0.369058
52 3 0.150411 0.00784272 0.440457
53 3 0.110046 0.146326 0.282948
54 3 0.26827 0.018682 0.414481
55 3 0.224494 0.176343 0.263507
56 3 0.296884 0.0982483 0.325029
57 1 0.94429 0.0653132 0.405945
40 4 0.7986 0.446704 0.10234
66 2 0.951912 0.217234 0.519576
60 4 0.0452751 0.205217 0.237758
61 4 0.33428 0.98759 0.475461
62 4 0.24665 0.246651 0.209255
63 4 0.374991 0.078728 0.273856
64 2 0.930692 0.992607 0.460291
38 4 0.774887 0.642024 0.0270402
27 2 0.456682 0.742416 0.00133009
58 1 0.892601 0.177428 0.456975
70 2 0.696387 0.330512 0.441138
11 3 0.116792 0.763599 0.00636979
10 3 0.205982 0.592448 0.933992
26 2 0.661546 0.793155 0.971854
12 3 0.129745 0.688163 0.918034
17 4 0.217269 0.528303 0.867772
68 1 0.781128 0.172508 0.547629
19 4 0.0830531 0.696529 0.838418
72 2 0.792295 0.17921 0.638916
69 2 0.662337 0.327307 0.586285
71 2 0.737916 0.0875166 0.536898
67 1 0.691906 0.277487 0.517726
18 4 0.0516566 0.83072 0.99534
59 4 0.115128 0.961837 0.514281
ITEM: TIMESTEP
1100
ITEM: NUMBER OF ATOMS
72
ITEM: BOX BOUNDS pp pp pp
-5.79054 5.79054
-5.79054 5.79054
-5.79054 5.79054
ITEM: ATOMS id type xs ys zs
1 1 0.287138 0.728909 0.327291
2 1 0.19949 0.630163 0.354813
3 2 0.358399 0.737314 0.391773
4 2 0.246626 0.815762 0.333536
5 2 0.181845 0.627388 0.447955
6 2 0.111668 0.635088 0.320693
7 3 0.25047 0.697597 0.104518
8 3 0.247211 0.589379 0.0442323
9 3 0.177492 0.786161 0.0767348
13 1 0.339989 0.713318 0.203661
14 1 0.439332 0.810467 0.182549
15 4 0.300019 0.516495 0.0721384
16 4 0.186572 0.866295 0.128108
20 2 0.389745 0.635122 0.217852
21 2 0.489665 0.841549 0.256045
22 2 0.393208 0.883351 0.145658
23 1 0.622662 0.838386 0.06606
24 1 0.516139 0.772187 0.0882284
25 2 0.598239 0.926383 0.0455198
65 2 0.907721 0.24225 0.373082
28 2 0.534742 0.683273 0.0927694
29 3 0.727857 0.710617 0.217377
30 3 0.691336 0.680852 0.329617
31 3 0.790257 0.629975 0.155691
32 3 0.706178 0.569676 0.370715
33 3 0.804732 0.517628 0.191385
34 3 0.763788 0.487445 0.30552
35 1 0.709675 0.827305 0.16261
36 1 0.827031 0.878608 0.121217
37 4 0.626497 0.736238 0.374542
39 4 0.667313 0.544765 0.45194
41 4 0.783391 0.403744 0.342671
42 2 0.679597 0.885904 0.233249
43 2 0.881836 0.825822 0.0684316
44 2 0.811318 0.949209 0.062863
45 1 0.865996 0.0246032 0.278305
46 1 0.904179 0.914067 0.222511
47 2 0.848605 0.0854072 0.209093
48 2 0.775188 -0.000357277 0.322148
49 2 0.898534 0.835425 0.289459
50 2 0.997022 0.924574 0.194433
51 3 0.0637562 0.0771867 0.388948
52 3 0.143586 0.00298442 0.441296
53 3 0.0971149 0.152456 0.297007
54 3 0.260512 0.0233795 0.413225
55 3 0.206378 0.182108 0.268593
56 3 0.289725 0.113342 0.333275
57 1 0.930934 0.0627086 0.396497
40 4 0.858486 0.465878 0.130977
27 2 0.46132 0.781361 0.00752479
60 4 0.016729 0.175666 0.241051
61 4 0.321984 0.97645 0.469125
62 4 0.222041 0.247907 0.206529
63 4 0.382589 0.124884 0.311151
64 2 0.904717 0.99041 0.443391
38 4 0.822921 0.659699 0.0721113
71 2 0.704922 0.228958 0.410944
58 1 0.886321 0.17922 0.44256
68 1 0.759283 0.194068 0.484171
10 3 0.159683 0.578783 0.958828
26 2 0.653537 0.798181 0.988538
12 3 0.0813152 0.670006 0.934566
17 4 0.152496 0.497166 0.915035
18 4 0.0298384 0.843713 0.972592
19 4 0.0109255 0.667294 0.872091
72 2 0.722503 0.110056 0.50418
69 2 0.710612 0.3621 0.559282
66 2 0.94498 0.212304 0.518433
67 1 0.747406 0.283253 0.587423
70 2 0.68572 0.249973 0.656176
11 3 0.0903965 0.773104 0.994855
59 4 0.114023 0.924824 0.469384
ITEM: TIMESTEP
1200
ITEM: NUMBER OF ATOMS
72
ITEM: BOX BOUNDS pp pp pp
-5.79054 5.79054
-5.79054 5.79054
-5.79054 5.79054
ITEM: ATOMS id type xs ys zs
1 1 0.257876 0.776242 0.310327
2 1 0.144527 0.704564 0.331012
3 2 0.314443 0.767568 0.386298
4 2 0.233694 0.867581 0.292686
5 2 0.154254 0.632897 0.3932
6 2 0.0881015 0.771254 0.362851
7 3 0.234425 0.704982 0.0936814
8 3 0.19651 0.593481 0.0748351
9 3 0.194415 0.799741 0.0300137
13 1 0.314567 0.725936 0.197786
14 1 0.41175 0.812839 0.173635
15 4 0.235331 0.522271 0.117784
16 4 0.231345 0.886184 0.0543482