read using pysimm.system.read_mol

6 atoms
5 bonds
6 angles
4 dihedrals
0 impropers

2 atom types
2 bond types
2 angle types
1 dihedral types

-11.221317 11.221283 xlo xhi
-10.929000 10.929000 ylo yhi
-10.070800 10.070800 zlo zhi

Masses

   1	12.01	# c3
   2	1.008	# hc

Pair Coeffs

   1	0.1094	3.39966950842	# c3
   2	0.0157	2.64953278775	# hc

Bond Coeffs

   1	337.3	1.092	# c3,hc
   2	303.1	1.535	# c3,c3

Angle Coeffs

   1	46.37	110.05	# c3,c3,hc
   2	39.43	108.35	# hc,c3,hc

Dihedral Coeffs

   1	0.16	 1	3	# X,c3,c3,X

Atoms

   1	1	1	-0.130479423243	-0.775633968829	0.113813385938	0.0323907852821
   2	1	1	-0.130479423243	0.752948747071	-0.0185313268795	-0.0263658695015
   3	1	2	0.0652397116213	-1.15655732755	-0.348091547023	0.945938047572
   4	1	2	0.0652397116213	-1.23555742528	-0.38804428328	-0.822966149089
   5	1	2	0.0652397116213	1.20315850678	0.472707088015	0.839817290317
   6	1	2	0.0652397116213	1.14246732538	0.457615183404	-0.92918216377

Velocities

   1	0.00385060731916	-0.00266731263711	-0.00205163701045
   2	0.000131931105222	-0.00127598594512	-0.000389454175073
   3	-0.0131568217859	0.0284095603196	0.0466299167694
   4	-0.0465601080388	-0.00903309238117	-0.0353586922111
   5	0.00796078182152	-0.00219292774943	0.0202844994754
   6	0.00430546697459	0.0297996105774	-0.00247089750766

Bonds

   1	2	1	2
   2	1	1	3
   3	1	1	4
   4	1	2	5
   5	1	2	6

Angles

   1	1	2	1	3
   2	1	2	1	4
   3	2	3	1	4
   4	1	1	2	5
   5	1	1	2	6
   6	2	5	2	6

Dihedrals

   1	1	3	1	2	5
   2	1	3	1	2	6
   3	1	4	1	2	5
   4	1	4	1	2	6

