pySIMM System Object

60 atoms
59 bonds
132 angles
282 dihedrals
0 impropers

2 atom types
2 bond types
3 angle types
1 dihedral types

-5.790535 5.790535 xlo xhi
-5.790535 5.790535 ylo yhi
-5.790535 5.790535 zlo zhi

Masses

   1	12.01	# c3
   2	1.008	# hc

Pair Coeffs

   1	0.1094	3.39966950842	# c3
   2	0.0157	2.64953278775	# hc

Bond Coeffs

   1	337.3	1.092	# c3,hc
   2	303.1	1.535	# c3,c3

Angle Coeffs

   1	46.37	110.05	# c3,c3,hc
   2	39.43	108.35	# hc,c3,hc
   3	63.21	110.63	# c3,c3,c3

Dihedral Coeffs

   1	0.16	 1	3	# X,c3,c3,X

Atoms

   1	1	1	-0.130479423243	-3.45745828748	-0.350986656404	5.75523864645
   2	1	1	-0.130479423243	-2.96111383049	-1.66083502667	-5.09813425342
   3	1	2	0.0652397116213	-4.52676740045	-0.203888811086	-5.67744456282
   4	1	2	0.0652397116213	-3.30323213246	-0.528879352618	4.70209126021
   5	1	2	0.0652397116213	-3.77775308459	-2.25075692897	-4.66950954051
   6	1	2	0.0652397116213	-2.373007468	-2.32139372412	-5.75080192704
   7	1	1	-0.130479423243	-2.93703876811	2.19369295472	5.21137642187
   8	1	1	-0.130479423243	-2.70606492714	0.944381903769	-5.40235279688
   9	1	2	0.0652397116213	-3.89547597179	2.10779818477	4.70799457964
  10	1	2	0.0652397116213	-2.93600052473	3.16467426622	5.71996240431
  11	1	2	0.0652397116213	-1.6578715396	0.705733419343	-5.24676972998
  12	1	2	0.0652397116213	-3.08505693858	1.26949373002	-4.44148109068
  13	1	1	-0.130479423243	-2.29341018234	1.42757282549	2.93290776705
  14	1	1	-0.130479423243	-1.90276816241	2.31632784241	4.12697816813
  15	1	2	0.0652397116213	-3.28015041267	0.964008153574	2.99415762563
  16	1	2	0.0652397116213	-2.39642271478	2.0877037408	2.07448533235
  17	1	2	0.0652397116213	-0.888776399308	2.17188546348	4.5299796117
  18	1	2	0.0652397116213	-1.94735023713	3.35271703991	3.77458102544
  19	1	1	-0.130479423243	-1.46464847892	-0.0643970762046	1.19220749425
  20	1	1	-0.130479423243	-1.30927092737	0.308716718211	2.6715830306
  21	1	2	0.0652397116213	-1.68763874411	0.83498055297	0.634909680542
  22	1	2	0.0652397116213	-0.461291000771	-0.280983844951	0.806687709663
  23	1	2	0.0652397116213	-1.54326070642	-0.541158462492	3.33170558474
  24	1	2	0.0652397116213	-0.301279618446	0.68344245551	2.8820853219
  25	1	1	-0.130479423243	-1.65989847307	-2.45505242181	0.834589428625
  26	1	1	-0.130479423243	-2.50629039777	-1.18298609962	0.867418995156
  27	1	2	0.0652397116213	-0.589544015603	-2.24818708474	0.905282486807
  28	1	2	0.0652397116213	-1.80989977768	-2.8860729524	-0.147273742426
  29	1	2	0.0652397116213	-3.37468518161	-1.26707062069	1.55252828172
  30	1	2	0.0652397116213	-2.99186914204	-1.0894294974	-0.120554540953
  31	1	1	-0.130479423243	-1.37480198323	-4.84584760182	1.5207433066
  32	1	1	-0.130479423243	-1.95678929431	-3.48183932412	1.93050080676
  33	1	2	0.0652397116213	-1.72076305764	-5.54319312824	2.27852118022
  34	1	2	0.0652397116213	-1.83706141858	-5.23050846778	0.594940335422
  35	1	2	0.0652397116213	-1.56763304413	-3.13646130813	2.90171573543
  36	1	2	0.0652397116213	-3.02460512711	-3.59352374045	2.06480554535
  37	1	1	-0.130479423243	0.861438808546	5.42993732759	1.08681072498
  38	1	1	-0.130479423243	0.180503992381	-4.8205648068	1.42348051327
  39	1	2	0.0652397116213	0.0863924115333	4.70182232333	0.835283548603
  40	1	2	0.0652397116213	1.54116888582	5.55602457744	0.232884499335
  41	1	2	0.0652397116213	0.469352826843	-4.17668242064	0.592905669891
  42	1	2	0.0652397116213	0.600758897584	-4.36377415177	2.32948098231
  43	1	1	-0.130479423243	0.930284670138	4.48640973647	3.46792436132
  44	1	1	-0.130479423243	1.72235819894	4.84682704464	2.22617774354
  45	1	2	0.0652397116213	-0.118597316853	4.55067937067	3.20171150829
  46	1	2	0.0652397116213	1.15549859922	3.44321809406	3.74886372248
  47	1	2	0.0652397116213	2.13588925569	3.9114008075	1.86328587358
  48	1	2	0.0652397116213	2.5217742796	5.55960457003	2.45279456503
  49	1	1	-0.130479423243	-0.0639815743797	5.70489795491	5.44947559871
  50	1	1	-0.130479423243	1.244150391	5.37065836723	4.68076120109
  51	1	2	0.0652397116213	-0.581703047745	-5.08312131057	4.90478542338
  52	1	2	0.0652397116213	-0.790817127689	4.88922574793	5.37844022866
  53	1	2	0.0652397116213	2.00520470171	4.82362698796	5.23912265921
  54	1	2	0.0652397116213	1.70101575348	-5.26129638209	4.39273847873
  55	1	1	-0.130479423243	1.27720997393	5.48162845793	-3.88792329853
  56	1	1	-0.130479423243	0.0654297530154	-5.48985367119	-4.64525251234
  57	1	2	0.0652397116213	1.60646784888	4.53624555246	-4.30604604567
  58	1	2	0.0652397116213	1.07337745529	5.32650749177	-2.82852462962
  59	1	2	0.0652397116213	0.147178900202	-4.40154892351	-4.50817167984
  60	1	2	0.0652397116213	-0.878030324979	5.74328860961	-4.21469739171

Velocities

   1	-0.00234076560745	-0.00233596908448	-0.00380709574629
   2	-0.00590955328548	0.00652847366416	0.00346188030311
   3	0.00471826637081	-0.0221288525682	0.0355228241874
   4	-0.0141013177066	0.0077149292919	-0.00676238538076
   5	0.0252345220046	0.00601835530737	0.0200438457124
   6	-0.000890849257314	0.0479249622852	0.00657069236351
   7	0.00883979279237	-0.00397080491821	-0.00109105670917
   8	-0.0091621342081	0.00575399012011	-0.00507468310065
   9	0.02274845827	-0.0222406525576	-0.020884894357
  10	0.0349298225952	0.0106172536183	0.0167859755222
  11	0.010124016492	-0.0252577946426	0.0157752520685
  12	0.037520816527	0.00561217773715	-0.0376507828942
  13	-0.0151992770945	0.0018540958041	-0.00673623876217
  14	0.00711967959324	0.00487797620974	0.00204318141977
  15	-0.0151668608124	0.0535132735029	0.0424510996523
  16	-0.00436492233603	-0.0416112906585	-0.0262141041591
  17	0.0217553692425	0.00943890148299	-0.00269899542525
  18	-0.00495059261875	-0.00396754420388	-0.0275637148765
  19	-0.00800193646918	0.0041443764341	0.0021166537088
  20	0.000848554868425	0.0150316593807	-0.0107716291179
  21	-0.0323130151861	0.0271962224148	0.0161889505939
  22	0.00141748785073	-0.0346661541833	-0.0425996108513
  23	0.0153433594101	-0.0137459582919	-0.0297291054015
  24	0.00339867571027	-0.0468536605663	-0.0123199292385
  25	0.00333924954064	0.00811944076358	-0.0080860954116
  26	-0.00131481581824	-0.00423169900992	-0.00413145800201
  27	-0.0337160342272	0.0189034471828	0.00721748407066
  28	0.0119477605619	0.00612635127473	-0.0463466628595
  29	0.0338374670531	0.0273022761877	-0.0190794984625
  30	0.0288507136259	-0.010180851327	0.00160354735406
  31	-0.0239100779873	0.0106531471524	-0.00163441619356
  32	-0.00513863197304	-0.00180663347728	-0.00746671340548
  33	5.67010410374e-06	-0.038878116289	-0.0132528965319
  34	-0.0161355082457	0.0042628824287	-0.0112418697299
  35	-0.00354770726212	0.0205497283574	0.04021536602
  36	0.00825886283841	-0.000961391115829	0.00930369520276
  37	0.00792108343113	-0.00570165016143	-0.0126766833008
  38	0.00856559321315	-0.0053936903328	0.00539095764288
  39	-0.0121548955381	-0.0220149997956	0.0059239398385
  40	0.0130642292219	0.0228092619004	0.0351977458438
  41	0.0112290707122	-0.015718608009	0.0536346689099
  42	-0.00554638640134	-0.00769498022114	0.03421665513
  43	-0.0115476594549	0.00434461701897	-0.00375508259207
  44	-0.00293764456782	0.00365236583847	-0.00161676257882
  45	0.018203969652	-0.039977953156	0.0547744596459
  46	0.0312021460783	-0.0026485706654	-0.0254567312571
  47	0.0542325942	0.0327979020729	0.00942662465545
  48	-0.00111459268914	-0.0235704014793	0.000233886512802
  49	-0.0190034784315	-0.0101269704732	-0.0151641157639
  50	0.00311412954642	-0.00400501769817	-0.00539149784395
  51	-0.0139341727081	0.0155392851978	-0.00408268760053
  52	-0.0146585020543	0.00968899475158	-0.0151480837354
  53	0.0127193484441	0.0528544532832	-0.023414524188
  54	-0.000714651103604	0.00714341409861	0.00380173005462
  55	0.0059874255017	0.00327230315094	-0.0119955474383
  56	-0.0102707044355	-0.0126702535831	0.00323779905336
  57	-0.0206581410232	0.0121401311429	0.0314688443871
  58	-0.00534672459892	0.00117186302168	0.00198048292165
  59	0.0123075808898	-0.00985852126187	0.0399871652432
  60	-0.0214121321347	-0.0257248582944	0.027214279929

Bonds

   1	2	1	2
   2	1	1	3
   3	1	1	4
   4	1	2	5
   5	1	2	6
   6	2	7	8
   7	1	7	9
   8	1	7	10
   9	1	8	11
  10	1	8	12
  11	2	1	8
  12	2	13	14
  13	1	13	15
  14	1	13	16
  15	1	14	17
  16	1	14	18
  17	2	7	14
  18	2	19	20
  19	1	19	21
  20	1	19	22
  21	1	20	23
  22	1	20	24
  23	2	13	20
  24	2	25	26
  25	1	25	27
  26	1	25	28
  27	1	26	29
  28	1	26	30
  29	2	19	26
  30	2	31	32
  31	1	31	33
  32	1	31	34
  33	1	32	35
  34	1	32	36
  35	2	25	32
  36	2	37	38
  37	1	37	39
  38	1	37	40
  39	1	38	41
  40	1	38	42
  41	2	31	38
  42	2	43	44
  43	1	43	45
  44	1	43	46
  45	1	44	47
  46	1	44	48
  47	2	37	44
  48	2	49	50
  49	1	49	51
  50	1	49	52
  51	1	50	53
  52	1	50	54
  53	2	43	50
  54	2	55	56
  55	1	55	57
  56	1	55	58
  57	1	56	59
  58	1	56	60
  59	2	49	56

Angles

   1	1	2	1	3
   2	1	2	1	4
   3	2	3	1	4
   4	1	1	2	5
   5	1	1	2	6
   6	2	5	2	6
   7	1	8	7	9
   8	1	8	7	10
   9	2	9	7	10
  10	1	7	8	11
  11	1	7	8	12
  12	2	11	8	12
  13	3	8	1	8
  14	3	2	1	8
  15	1	3	1	8
  16	1	4	1	8
  17	3	1	8	1
  18	1	1	8	11
  19	1	1	8	12
  20	3	1	8	7
  21	1	14	13	15
  22	1	14	13	16
  23	2	15	13	16
  24	1	13	14	17
  25	1	13	14	18
  26	2	17	14	18
  27	3	8	7	14
  28	1	9	7	14
  29	1	10	7	14
  30	3	14	7	14
  31	1	7	14	17
  32	1	7	14	18
  33	3	7	14	13
  34	3	7	14	7
  35	1	20	19	21
  36	1	20	19	22
  37	2	21	19	22
  38	1	19	20	23
  39	1	19	20	24
  40	2	23	20	24
  41	1	16	13	20
  42	3	20	13	20
  43	3	14	13	20
  44	1	15	13	20
  45	1	13	20	24
  46	3	13	20	19
  47	3	13	20	13
  48	1	13	20	23
  49	1	26	25	27
  50	1	26	25	28
  51	2	27	25	28
  52	1	25	26	29
  53	1	25	26	30
  54	2	29	26	30
  55	3	26	19	26
  56	3	20	19	26
  57	1	21	19	26
  58	1	22	19	26
  59	3	19	26	25
  60	3	19	26	19
  61	1	19	26	29
  62	1	19	26	30
  63	1	32	31	33
  64	1	32	31	34
  65	2	33	31	34
  66	1	31	32	35
  67	1	31	32	36
  68	2	35	32	36
  69	3	32	25	32
  70	3	26	25	32
  71	1	27	25	32
  72	1	28	25	32
  73	3	25	32	25
  74	1	25	32	35
  75	1	25	32	36
  76	3	25	32	31
  77	1	38	37	39
  78	1	38	37	40
  79	2	39	37	40
  80	1	37	38	41
  81	1	37	38	42
  82	2	41	38	42
  83	3	32	31	38
  84	1	33	31	38
  85	1	34	31	38
  86	3	38	31	38
  87	1	31	38	41
  88	1	31	38	42
  89	3	31	38	37
  90	3	31	38	31
  91	1	44	43	45
  92	1	44	43	46
  93	2	45	43	46
  94	1	43	44	47
  95	1	43	44	48
  96	2	47	44	48
  97	1	40	37	44
  98	3	44	37	44
  99	3	38	37	44
 100	1	39	37	44
 101	1	37	44	48
 102	3	37	44	43
 103	3	37	44	37
 104	1	37	44	47
 105	1	50	49	51
 106	1	50	49	52
 107	2	51	49	52
 108	1	49	50	53
 109	1	49	50	54
 110	2	53	50	54
 111	3	50	43	50
 112	3	44	43	50
 113	1	45	43	50
 114	1	46	43	50
 115	3	43	50	49
 116	3	43	50	43
 117	1	43	50	53
 118	1	43	50	54
 119	1	56	55	57
 120	1	56	55	58
 121	2	57	55	58
 122	1	55	56	59
 123	1	55	56	60
 124	2	59	56	60
 125	3	56	49	56
 126	3	50	49	56
 127	1	51	49	56
 128	1	52	49	56
 129	3	49	56	49
 130	1	49	56	59
 131	1	49	56	60
 132	3	49	56	55

Dihedrals

   1	1	3	1	2	5
   2	1	3	1	2	6
   3	1	4	1	2	5
   4	1	4	1	2	6
   5	1	9	7	8	11
   6	1	9	7	8	12
   7	1	10	7	8	11
   8	1	10	7	8	12
   9	1	11	8	1	8
  10	1	12	8	1	8
  11	1	7	8	1	8
  12	1	5	2	1	8
  13	1	6	2	1	8
  14	1	1	8	1	2
  15	1	1	8	1	3
  16	1	1	8	1	4
  17	1	1	8	7	9
  18	1	1	8	7	10
  19	1	8	1	8	1
  20	1	8	1	8	11
  21	1	8	1	8	12
  22	1	8	1	8	7
  23	1	2	1	8	1
  24	1	2	1	8	11
  25	1	2	1	8	12
  26	1	2	1	8	7
  27	1	3	1	8	1
  28	1	3	1	8	11
  29	1	3	1	8	12
  30	1	3	1	8	7
  31	1	4	1	8	1
  32	1	4	1	8	11
  33	1	4	1	8	12
  34	1	4	1	8	7
  35	1	15	13	14	17
  36	1	15	13	14	18
  37	1	16	13	14	17
  38	1	16	13	14	18
  39	1	1	8	7	14
  40	1	11	8	7	14
  41	1	12	8	7	14
  42	1	17	14	7	14
  43	1	18	14	7	14
  44	1	13	14	7	14
  45	1	7	14	13	16
  46	1	7	14	13	15
  47	1	7	14	7	8
  48	1	7	14	7	9
  49	1	7	14	7	10
  50	1	8	7	14	17
  51	1	8	7	14	18
  52	1	8	7	14	13
  53	1	8	7	14	7
  54	1	9	7	14	17
  55	1	9	7	14	18
  56	1	9	7	14	13
  57	1	9	7	14	7
  58	1	10	7	14	17
  59	1	10	7	14	18
  60	1	10	7	14	13
  61	1	10	7	14	7
  62	1	14	7	14	17
  63	1	14	7	14	18
  64	1	14	7	14	13
  65	1	14	7	14	7
  66	1	21	19	20	23
  67	1	21	19	20	24
  68	1	22	19	20	23
  69	1	22	19	20	24
  70	1	24	20	13	20
  71	1	19	20	13	20
  72	1	23	20	13	20
  73	1	17	14	13	20
  74	1	18	14	13	20
  75	1	7	14	13	20
  76	1	13	20	19	21
  77	1	13	20	19	22
  78	1	13	20	13	16
  79	1	13	20	13	14
  80	1	13	20	13	15
  81	1	16	13	20	24
  82	1	16	13	20	19
  83	1	16	13	20	13
  84	1	16	13	20	23
  85	1	20	13	20	24
  86	1	20	13	20	19
  87	1	20	13	20	13
  88	1	20	13	20	23
  89	1	14	13	20	24
  90	1	14	13	20	19
  91	1	14	13	20	13
  92	1	14	13	20	23
  93	1	15	13	20	24
  94	1	15	13	20	19
  95	1	15	13	20	13
  96	1	15	13	20	23
  97	1	27	25	26	29
  98	1	27	25	26	30
  99	1	28	25	26	29
 100	1	28	25	26	30
 101	1	25	26	19	26
 102	1	29	26	19	26
 103	1	30	26	19	26
 104	1	24	20	19	26
 105	1	13	20	19	26
 106	1	23	20	19	26
 107	1	19	26	25	27
 108	1	19	26	25	28
 109	1	19	26	19	20
 110	1	19	26	19	21
 111	1	19	26	19	22
 112	1	26	19	26	25
 113	1	26	19	26	19
 114	1	26	19	26	29
 115	1	26	19	26	30
 116	1	20	19	26	25
 117	1	20	19	26	19
 118	1	20	19	26	29
 119	1	20	19	26	30
 120	1	21	19	26	25
 121	1	21	19	26	19
 122	1	21	19	26	29
 123	1	21	19	26	30
 124	1	22	19	26	25
 125	1	22	19	26	19
 126	1	22	19	26	29
 127	1	22	19	26	30
 128	1	33	31	32	35
 129	1	33	31	32	36
 130	1	34	31	32	35
 131	1	34	31	32	36
 132	1	35	32	25	32
 133	1	36	32	25	32
 134	1	31	32	25	32
 135	1	19	26	25	32
 136	1	29	26	25	32
 137	1	30	26	25	32
 138	1	25	32	25	26
 139	1	25	32	25	27
 140	1	25	32	25	28
 141	1	25	32	31	33
 142	1	25	32	31	34
 143	1	32	25	32	25
 144	1	32	25	32	35
 145	1	32	25	32	36
 146	1	32	25	32	31
 147	1	26	25	32	25
 148	1	26	25	32	35
 149	1	26	25	32	36
 150	1	26	25	32	31
 151	1	27	25	32	25
 152	1	27	25	32	35
 153	1	27	25	32	36
 154	1	27	25	32	31
 155	1	28	25	32	25
 156	1	28	25	32	35
 157	1	28	25	32	36
 158	1	28	25	32	31
 159	1	39	37	38	41
 160	1	39	37	38	42
 161	1	40	37	38	41
 162	1	40	37	38	42
 163	1	25	32	31	38
 164	1	35	32	31	38
 165	1	36	32	31	38
 166	1	41	38	31	38
 167	1	42	38	31	38
 168	1	37	38	31	38
 169	1	31	38	37	40
 170	1	31	38	37	39
 171	1	31	38	31	32
 172	1	31	38	31	33
 173	1	31	38	31	34
 174	1	32	31	38	41
 175	1	32	31	38	42
 176	1	32	31	38	37
 177	1	32	31	38	31
 178	1	33	31	38	41
 179	1	33	31	38	42
 180	1	33	31	38	37
 181	1	33	31	38	31
 182	1	34	31	38	41
 183	1	34	31	38	42
 184	1	34	31	38	37
 185	1	34	31	38	31
 186	1	38	31	38	41
 187	1	38	31	38	42
 188	1	38	31	38	37
 189	1	38	31	38	31
 190	1	45	43	44	47
 191	1	45	43	44	48
 192	1	46	43	44	47
 193	1	46	43	44	48
 194	1	48	44	37	44
 195	1	43	44	37	44
 196	1	47	44	37	44
 197	1	41	38	37	44
 198	1	42	38	37	44
 199	1	31	38	37	44
 200	1	37	44	43	45
 201	1	37	44	43	46
 202	1	37	44	37	40
 203	1	37	44	37	38
 204	1	37	44	37	39
 205	1	40	37	44	48
 206	1	40	37	44	43
 207	1	40	37	44	37
 208	1	40	37	44	47
 209	1	44	37	44	48
 210	1	44	37	44	43
 211	1	44	37	44	37
 212	1	44	37	44	47
 213	1	38	37	44	48
 214	1	38	37	44	43
 215	1	38	37	44	37
 216	1	38	37	44	47
 217	1	39	37	44	48
 218	1	39	37	44	43
 219	1	39	37	44	37
 220	1	39	37	44	47
 221	1	51	49	50	53
 222	1	51	49	50	54
 223	1	52	49	50	53
 224	1	52	49	50	54
 225	1	49	50	43	50
 226	1	53	50	43	50
 227	1	54	50	43	50
 228	1	48	44	43	50
 229	1	37	44	43	50
 230	1	47	44	43	50
 231	1	43	50	49	51
 232	1	43	50	49	52
 233	1	43	50	43	44
 234	1	43	50	43	45
 235	1	43	50	43	46
 236	1	50	43	50	49
 237	1	50	43	50	43
 238	1	50	43	50	53
 239	1	50	43	50	54
 240	1	44	43	50	49
 241	1	44	43	50	43
 242	1	44	43	50	53
 243	1	44	43	50	54
 244	1	45	43	50	49
 245	1	45	43	50	43
 246	1	45	43	50	53
 247	1	45	43	50	54
 248	1	46	43	50	49
 249	1	46	43	50	43
 250	1	46	43	50	53
 251	1	46	43	50	54
 252	1	57	55	56	59
 253	1	57	55	56	60
 254	1	58	55	56	59
 255	1	58	55	56	60
 256	1	59	56	49	56
 257	1	60	56	49	56
 258	1	55	56	49	56
 259	1	43	50	49	56
 260	1	53	50	49	56
 261	1	54	50	49	56
 262	1	49	56	49	50
 263	1	49	56	49	51
 264	1	49	56	49	52
 265	1	49	56	55	57
 266	1	49	56	55	58
 267	1	56	49	56	49
 268	1	56	49	56	59
 269	1	56	49	56	60
 270	1	56	49	56	55
 271	1	50	49	56	49
 272	1	50	49	56	59
 273	1	50	49	56	60
 274	1	50	49	56	55
 275	1	51	49	56	49
 276	1	51	49	56	59
 277	1	51	49	56	60
 278	1	51	49	56	55
 279	1	52	49	56	49
 280	1	52	49	56	59
 281	1	52	49	56	60
 282	1	52	49	56	55

