pySIMM System Object

472 atoms
521 bonds
1020 angles
1771 dihedrals
120 impropers

4 atom types
7 bond types
3 angle types
5 dihedral types
1 improper types

-13.015183 13.015183 xlo xhi
-13.015183 13.015183 ylo yhi
-13.015183 13.015183 zlo zhi

Masses

   1	28.086	# Si3
   2	1.008	# H_
   3	12.011	# C_R
   4	12.011	# C_3

Pair Coeffs

   1	0.31	3.80413752646	# Si3
   2	0.0152	2.84642140446	# H_
   3	0.0951	3.47299047293	# C_R
   4	0.0951	3.47299047293	# C_3

Bond Coeffs

   1	350.0	1.697	# Si3,C_3
   2	350.0	1.09	# C_3,H_
   3	350.0	1.627	# Si3,C_R
   4	525.0	1.39	# C_R,C_R
   5	350.0	1.53	# C_3,C_3
   6	350.0	1.02	# C_R,H_
   7	350.0	1.46	# C_R,C_3

Angle Coeffs

   1	50.0	109.471	# X,Si3,X
   2	50.0	109.471	# X,C_3,X
   3	50.0	120.0	# X,C_R,X

Dihedral Coeffs

   1	0.111111	1	3	# X,C_3,C_3,X
   2	0.083333	-1	6	# X,Si3,C_R,C_R
   3	0.111111	1	3	# X,Si3,C_3,X
   4	3.125000	-1	2	# X,C_R,C_R,X
   5	0.083333	-1	6	# C_R,C_R,C_3,X

Improper Coeffs

   1	40.0	0.0	# C_R,X,X,X

Atoms

   1	1	2	0.0333913854865	-2.77713590094	-1.39986976387	-4.49822221457
   2	1	1	0.0647878772074	1.37005660266	-5.46385053891	6.23523874395
   3	1	4	-0.0461252212321	-2.28352359349	-1.40391061845	-2.38566621971
   4	1	4	-0.0171871909276	-2.73733778422	-0.618486145891	-1.13238479552
   5	1	4	-0.0172184501778	-1.95666209457	0.787337341501	-1.31423927001
   6	1	4	-0.0461257660615	-1.18552446629	0.543539904058	-2.63740810948
   7	1	4	-0.0610547704878	-2.21440319227	0.570088824297	-3.78037170123
   8	1	4	-0.0610547661056	-2.97387270838	-0.766127187287	-3.6036851582
   9	1	3	-0.0460532386513	-1.87603070605	-0.753465946917	0.0739613407086
  10	1	3	-0.0468938850378	-1.2597535209	0.374208282609	-0.0657507315534
  11	1	3	-0.0655757797683	-1.59839428711	-1.66341237431	1.08482655831
  12	1	3	-0.0261091222654	-0.566190769864	-1.33047243706	2.01750834603
  13	1	3	-0.0721273413188	0.0836164616132	-0.0578184216079	1.85152675408
  14	1	3	-0.075591499516	-0.266264826694	0.808684695815	0.794498697883
  15	1	4	-0.0574372549304	-0.838126171156	-0.951026411603	-2.61808318702
  16	1	3	-0.0266927623047	-0.136609015996	-2.30810235755	3.09147657429
  17	1	3	-0.072544623331	0.990370196389	-2.059610916	3.91382663864
  18	1	3	-0.0801360777024	1.42428197714	-2.99769436751	4.85619157037
  19	1	3	-0.0686276200871	0.749984588606	-4.20999666312	5.01277837014
  20	1	3	-0.0801360777024	-0.37719906366	-4.46832192797	4.23033537438
  21	1	3	-0.072544623331	-0.814538902396	-3.53647649775	3.28544546564
  22	1	4	-0.0747602256148	3.11289787223	-5.96221139974	5.78051964222
  23	1	4	-0.0747602256148	1.37472878198	-4.72871179938	7.94985728298
  24	1	4	-0.0747602256148	0.305209939279	-7.00034747998	6.23549091615
  25	1	2	0.0411173219023	-2.46804059428	-2.49481301433	-2.28849807123
  26	1	2	0.0493872767323	-3.8228225805	-0.585059924587	-0.89332862058
  27	1	2	0.0493864465891	-2.539736841	1.72769652194	-1.20567849516
  28	1	2	0.0411173152841	-0.346626246235	1.25763813783	-2.77726353093
  29	1	2	0.0861045002907	-2.14874454894	-2.58820585064	1.08753311695
  30	1	2	0.0851597206542	0.870719668977	0.282359020556	2.50173086726
  31	1	2	0.0846713007392	0.233645291863	1.75650495877	0.644507689807
  32	1	2	0.034011099193	-0.404496828868	-1.32306266964	-3.57498553637
  33	1	2	0.034011099193	-0.140238003753	-1.2409641501	-1.80241767126
  34	1	2	0.0851357626922	1.57569478197	-1.15965414022	3.83810470501
  35	1	2	0.0840090236298	2.3008700316	-2.77922918414	5.45392170716
  36	1	2	0.0840090236298	-0.919549260877	-5.39844935171	4.33332347655
  37	1	2	0.0851357626922	-1.68249251861	-3.81529284709	2.7135343769
  38	1	2	0.0246564083843	3.77359097961	-5.07152964262	5.7964857119
  39	1	2	0.0246564083843	3.11783263386	-6.40868238427	4.76491390272
  40	1	2	0.0246564083843	3.48422891544	-6.70930761714	6.51204224494
  41	1	2	0.0246564083843	2.03194467879	-3.83528624392	7.96812999032
  42	1	2	0.0246564083843	1.75646038027	-5.48202308471	8.66941780459
  43	1	2	0.0246564083843	0.342063965157	-4.43783486806	8.23010473955
  44	1	2	0.0246564083843	0.313991482924	-7.45729567602	5.22440406003
  45	1	2	0.0246564083843	-0.734245156372	-6.73340066904	6.51549047731
  46	1	2	0.0246564083843	0.709612294812	-7.72752547826	6.96891426842
  47	1	2	0.0333913854612	-2.85975910736	1.47424202548	-3.7679000678
  48	1	2	0.0333913854865	-4.0724990464	-0.659015084889	-3.47656034976
  49	1	1	0.0647878772074	-10.854279688306905	1.41436461587264	-12.102511449700891
  50	1	4	-0.0461252212321	-2.732698549737295	0.7337477448399563	-5.96016309711651
  51	1	4	-0.0171871909276	-2.3402639526160094	0.674738373227808	-7.455511294374993
  52	1	4	-0.0172184501778	-1.5337865897224519	2.0645212679564935	-7.647769008550032
  53	1	4	-0.0461257660615	-1.623597636064996	2.673248726194929	-6.224304549021299
  54	1	4	-0.0610547704878	-0.6901935692111859	1.8558130334659098	-5.315339320735091
  55	1	4	-0.0610547661056	-1.4496630853191985	0.5195970218816104	-5.138652777703626
  56	1	3	-0.0460532386513	-3.301640681530694	1.2898846544518277	-8.410859538628136
  57	1	3	-0.0468938850378	-2.65213610442153	2.395809814918383	-8.572227267004257
  58	1	3	-0.0655757797683	-4.526311458969554	1.0213583813479779	-9.006685098284867
  59	1	3	-0.0261091222654	-5.099060439675611	2.032963675252454	-9.840232790048578
  60	1	3	-0.0721273413188	-4.340881137732723	3.2420524782871585	-10.02110838951269
  61	1	3	-0.075591499516	-3.0990712284091315	3.4286921249761546	-9.377970246195456
  62	1	4	-0.0574372549304	-2.98915130575688	2.2203004489269977	-5.690555044748887
  63	1	3	-0.0266927623047	-6.474139006523178	1.8583547807865177	-10.450461574169605
  64	1	3	-0.072544623331	-7.120214415479953	2.914762901455945	-11.139430527406997
  65	1	3	-0.0801360777024	-8.418326507559733	2.7703429134632973	-11.639809906942624
  66	1	3	-0.0686276200871	-9.113174839648167	1.570946834603115	-11.47395427270386
  67	1	3	-0.0801360777024	-8.489257831374534	0.5074263673274026	-10.81886362823355
  68	1	3	-0.072544623331	-7.1935372051576785	0.6458767084746531	-10.314523919473263
  69	1	4	-0.0747602256148	-11.932077749645082	2.6901934677874166	-11.2639169233668
  70	1	4	-0.0747602256148	-10.891057935916074	1.7026692726519037	-13.945306966132975
  71	1	4	-0.0747602256148	-11.561316597565217	-0.2772893334297979	-11.737645645937484
  72	1	2	0.0411173219023	-3.5469678514686964	0.020986879110624024	-5.710175772352573
  73	1	2	0.0493872767323	-1.8735579466258074	-0.2569866047641203	-7.84360468437103
  74	1	2	0.0493864465891	-0.5414440157277575	2.0289819058917713	-8.147799167222106
  75	1	2	0.0411173152841	-1.411337115178358	3.763249981735628	-6.214882012598795
  76	1	2	0.0861045002907	-4.996717718639535	0.08119503419686791	-8.776583943274906
  77	1	2	0.0851597206542	-4.68685935456144	4.0598953685658605	-10.628932064850037
  78	1	2	0.0846713007392	-2.5326170911328565	4.344258258035343	-9.485854658218859
  79	1	2	0.034011099193	-3.149778821362454	2.4550429953004564	-4.61296410744824
  80	1	2	0.034011099193	-3.8534086152134557	2.63597718517315	-6.253310918991554
  81	1	2	0.0851357626922	-6.660152205539088	3.8762521333835007	-11.288232744701244
  82	1	2	0.0840090236298	-8.88565329702961	3.6067956766453277	-12.14514881976146
  83	1	2	0.0840090236298	-9.004045736653334	-0.4335168331195616	-10.679197540326399
  84	1	2	0.0851357626922	-6.787787865305011	-0.21476861655342128	-9.811710407605844
  85	1	2	0.0246564083843	-11.549105600738645	3.7074784031840644	-11.484252992536206
  86	1	2	0.0246564083843	-11.922813766637264	2.520521181878551	-10.16758613203907
  87	1	2	0.0246564083843	-12.971535572789124	2.5983506527734836	-11.641086846922434
  88	1	2	0.0246564083843	-10.505048293567183	2.7182189462986317	-14.169207092014375
  89	1	2	0.0246564083843	-11.936184791081637	1.6172709995363292	-14.307772470092473
  90	1	2	0.0246564083843	-10.259866387248717	0.9439597609812421	-14.450778781164608
  91	1	2	0.0246564083843	-11.563894745911284	-0.44913754843787657	-10.64145362619384
  92	1	2	0.0246564083843	-10.945796378012002	-1.0538819497035938	-12.235808287722454
  93	1	2	0.0246564083843	-12.601642758187111	-0.33067257817709295	-12.118579536141496
  94	1	2	0.0333913854612	0.3382675055425787	1.7531137988319363	-5.722590465511785
  95	1	2	0.0333913854865	-0.8774440519937453	-0.3808238272186635	-5.449170446131088
  96	1	1	0.0647878772074	7.181478116373758	-4.7595846683566885	0.9209717357486422
  97	1	4	-0.0461252212321	0.4795635399289259	1.5995966409205487	-3.414569393773186
  98	1	4	-0.0171871909276	0.7828281574103761	1.9830870075316447	-1.9467414200309223
  99	1	4	-0.0172184501778	1.5677789607362458	3.387583631615788	-2.1202543281799078
 100	1	4	-0.0461257660615	1.5814323587385788	3.5452966302784144	-3.6629164443854725
 101	1	4	-0.0610547704878	0.14918321406943896	3.8942162607094106	-4.1017552862105955
 102	1	4	-0.0610547661056	-0.610286302038574	2.5580002491251115	-3.925068743179131
 103	1	3	-0.0460532386513	2.0843391773848525	1.5105956015153157	-1.4006998775401414
 104	1	3	-0.0468938850378	2.708237925208269	2.6353315967656394	-1.5298722176623096
 105	1	3	-0.0655757797683	2.6799532936206547	0.34852223572440355	-0.9297834443377879
 106	1	3	-0.0261091222654	4.064610913286079	0.40470019330065954	-0.575162895884874
 107	1	3	-0.0721273413188	4.724994507892991	1.6760690912035114	-0.7054019200648063
 108	1	3	-0.075591499516	4.038759546851871	2.809384648643883	-1.1904073896303684
 109	1	4	-0.0574372549304	1.6901674737718202	2.112581490724864	-4.201703511465559
 110	1	3	-0.0266927623047	4.81316994098309	-0.8391967945630832	-0.14378352035004838
 111	1	3	-0.072544623331	6.216800748200844	-0.8309625664948346	0.05074803112004034
 112	1	3	-0.0801360777024	6.912352380215396	-1.9987409001554477	0.3806470317774151
 113	1	3	-0.0686276200871	6.234398080086064	-3.209840051506359	0.5306139032299022
 114	1	3	-0.0801360777024	4.848099695117796	-3.2390820835380554	0.3668651279763804
 115	1	3	-0.072544623331	4.147522911255329	-2.076567325639976	0.03494557811211596
 116	1	4	-0.0747602256148	8.416983408058362	-5.089662976415592	-0.4418208694442103
 117	1	4	-0.0747602256148	8.095094198495616	-4.554427926176126	2.5345342215626143
 118	1	4	-0.0747602256148	6.045524540805538	-6.238720047693682	1.0493825364913363
 119	1	2	0.0411173219023	0.21660652089626295	0.5260282919200003	-3.5234767680216454
 120	1	2	0.0493872767323	-0.04513744978282169	1.9364966532173205	-1.2059008824048632
 121	1	2	0.0493864465891	1.238916876031551	4.250889043738846	-1.5017153361650797
 122	1	2	0.0411173152841	2.34299222230691	4.276228490696767	-4.007896501239706
 123	1	2	0.0861045002907	2.0763235993894615	-0.5417291518746961	-0.8948639781300378
 124	1	2	0.0851597206542	5.763767699737627	1.8192046442905228	-0.4635755167350939
 125	1	2	0.0846713007392	4.532031407351941	3.7640461714367643	-1.317194331140822
 126	1	2	0.034011099193	1.5654225412806606	2.038327012087363	-5.306706888935533
 127	1	2	0.034011099193	2.6438104379125043	1.6039866359731638	-3.940325641964202
 128	1	2	0.0851357626922	6.813037371083149	0.0570364713369611	-0.06850161602286686
 129	1	2	0.0840090236298	7.9877534288186265	-1.9560611894286764	0.5035534878948678
 130	1	2	0.0840090236298	4.2980706369237565	-4.1635118033367435	0.4799360716139702
 131	1	2	0.0851357626922	3.0836394388433113	-2.184422116557071	-0.08623045584171507
 132	1	2	0.0246564083843	9.120901460874542	-4.236550872508656	-0.5241822869099106
 133	1	2	0.0246564083843	7.881038831432271	-5.2216730277519	-1.4041890251576366
 134	1	2	0.0246564083843	8.984396912599689	-6.013957182941513	-0.20754121892640098
 135	1	2	0.0246564083843	8.79744568386663	-3.699390004928537	2.456506058533268
 136	1	2	0.0246564083843	8.665073014856118	-5.481105351764968	2.752151656076289
 137	1	2	0.0246564083843	7.3675449359061735	-4.366214696551492	3.3498823071676664
 138	1	2	0.0246564083843	5.5136415539471635	-6.3820357060809	0.08619174004877372
 139	1	2	0.0246564083843	5.30869464270372	-6.073388248148379	1.861709039396648
 140	1	2	0.0246564083843	6.6453437669217665	-7.144231366823351	1.2741158604764111
 141	1	2	0.0333913854612	-0.28421647309347975	4.750280760212886	-3.541888253910113
 142	1	2	0.0333913854865	-1.4925501439639066	2.614330213219321	-3.2519781115578774
 143	1	1	0.0647878772074	-11.191104756604105	7.047988289893698	-6.565465537492684
 144	1	4	-0.0461252212321	-1.3093925417150811	4.679908213116283	-5.619038967661185
 145	1	4	-0.0171871909276	-1.6817858738326952	5.061287414313188	-7.071425404216123
 146	1	4	-0.0172184501778	-0.8814543429467523	6.4536758366492695	-7.270395708568812
 147	1	4	-0.0461257660615	-0.20478980895584464	6.6216984387792	-5.885202681004656
 148	1	4	-0.0610547704878	0.926402785401089	5.583251580852575	-5.797490152057237
 149	1	4	-0.0610547661056	0.16693326929307584	4.2470355692682755	-5.6208036090257725
 150	1	3	-0.0460532386513	-2.8867152599458286	5.919426538612878	-7.235994076287051
 151	1	3	-0.0468938850378	-2.247057463813232	7.029924647593659	-7.405103667371952
 152	1	3	-0.0655757797683	-4.271175878105192	5.825375458376461	-7.199167984013307
 153	1	3	-0.0261091222654	-5.026274844203714	7.030713419909141	-7.351399287907067
 154	1	3	-0.0721273413188	-4.287170626321414	8.246499655209991	-7.5636169949005625
 155	1	3	-0.075591499516	-2.876559544696988	8.248595650531367	-7.590540278540917
 156	1	4	-0.0574372549304	-1.2035604730985785	6.021754500365833	-4.886547619830407
 157	1	3	-0.0266927623047	-6.535780628784366	7.029447462011298	-7.228520552284683
 158	1	3	-0.072544623331	-7.280382420369639	8.235023548552991	-7.21289232376006
 159	1	3	-0.0801360777024	-8.66687940106925	8.231365735659379	-7.02865225505702
 160	1	3	-0.0686276200871	-9.356602682855222	7.029749482749141	-6.857557470494941
 161	1	3	-0.0801360777024	-8.648264290942139	5.827027476092572	-6.892320485985314
 162	1	3	-0.072544623331	-7.262790556935117	5.823802556175723	-7.0736244083592545
 163	1	4	-0.0747602256148	-11.56053429822403	8.015976758069058	-5.010104216365655
 164	1	4	-0.0747602256148	-12.054234977333794	7.859049157322144	-8.006837807723151
 165	1	4	-0.0747602256148	-11.86430881353559	5.317441237939759	-6.349306964439195
 166	1	2	0.0411173219023	-1.9973112433908118	3.9184581194469175	-5.194165074916886
 167	1	2	0.0493872767323	-1.5851096469884798	4.2864996903411825	-7.863195636004013
 168	1	2	0.0493864465891	-0.2581408167264878	6.573302371789884	-8.183197291674974
 169	1	2	0.0411173152841	0.1325447200994635	7.6636619313439045	-5.701454087351814
 170	1	2	0.0861045002907	-4.6998801950465054	4.8550075116115545	-7.018241572101886
 171	1	2	0.0851597206542	-4.764480050993786	9.202750476848134	-7.689225988349721
 172	1	2	0.0846713007392	-2.309826894227624	9.16071802263793	-7.723271439895999
 173	1	2	0.034011099193	-0.8026954169317868	5.931862560242152	-3.8505292146632026
 174	1	2	0.034011099193	-2.1655919528758765	6.575766562363921	-4.82339631677077
 175	1	2	0.0851357626922	-6.819398309766463	9.20208401469128	-7.315598626408885
 176	1	2	0.0840090236298	-9.198951813775338	9.174622869557595	-7.0045712046804915
 177	1	2	0.0840090236298	-9.158435890156671	4.881821639434867	-6.765048432088582
 178	1	2	0.0851357626922	-6.78882656928471	4.857615278997159	-7.075772390854366
 179	1	2	0.0246564083843	-11.192895996607016	9.05656426771565	-5.1201224146405915
 180	1	2	0.0246564083843	-11.057771128125584	7.535116492664254	-4.145917714534378
 181	1	2	0.0246564083843	-12.65643296285261	8.02898957424328	-4.836894506821103
 182	1	2	0.0246564083843	-11.685869931193082	8.8990375442422	-8.121760381020025
 183	1	2	0.0246564083843	-13.147251843180097	7.873907509363054	-7.816949392199323
 184	1	2	0.0246564083843	-11.8462373657589	7.2852935862629655	-8.932627302293971
 185	1	2	0.0246564083843	-11.372220504632782	4.8344400443782805	-5.479977140230128
 186	1	2	0.0246564083843	-11.668936805211903	4.724319503492196	-7.265911370106918
 187	1	2	0.0246564083843	-12.957518615952537	5.368338997234567	-6.168916648739396
 188	1	2	0.0333913854612	1.6158678367778285	5.611960302265357	-6.668091416842048
 189	1	2	0.0333913854865	0.3963911700921181	3.480541184367299	-6.3918087838956765
 190	1	1	0.0647878772074	9.828912831368728	-2.4926741417340397	-6.175664816531065
 191	1	4	-0.0461252212321	2.8080308039192445	4.79554691040774	-4.856266373393313
 192	1	4	-0.0171871909276	3.8174067820403925	4.738465238021099	-3.685174973258583
 193	1	4	-0.0172184501778	4.6098400456862105	6.1393040978461855	-3.8541876102760257
 194	1	4	-0.0461257660615	3.9146353884229304	6.73861788603981	-5.104139480469616
 195	1	4	-0.0610547704878	2.5073679845630568	7.187982647280415	-4.675966833761925
 196	1	4	-0.0610547661056	1.7478984684550436	5.851766635696116	-4.499280290730461
 197	1	3	-0.0460532386513	5.144653766416043	4.138616509623935	-3.9916670212892753
 198	1	3	-0.0468938850378	5.77976880066128	5.257542244157389	-4.116568157690999
 199	1	3	-0.0655757797683	5.727983681998824	2.8948820795234687	-4.191125906698905
 200	1	3	-0.0261091222654	7.109040445468658	2.857192593056628	-4.561868591972795
 201	1	3	-0.0721273413188	7.79534016682568	4.117033769604699	-4.667889685813816
 202	1	3	-0.075591499516	7.122525828667511	5.336586829481368	-4.4430251031996475
 203	1	4	-0.0574372549304	3.560342143144915	5.525268557924761	-5.974224076536649
 204	1	3	-0.0266927623047	7.795794532999594	1.5479407862185939	-4.890406306019293
 205	1	3	-0.072544623331	9.11126429198011	1.5110594101332113	-5.4160191362525305
 206	1	3	-0.0801360777024	9.714264955546803	0.30368423577970205	-5.783397753067618
 207	1	3	-0.0686276200871	9.03016284763958	-0.9043706510813943	-5.636833957101773
 208	1	3	-0.0801360777024	7.741472882829992	-0.8963898408980695	-5.09951984853223
 209	1	3	-0.072544623331	7.132426625013933	0.3064941343746206	-4.732706847300776
 210	1	4	-0.0747602256148	10.216576270278177	-2.402106426812053	-8.001628465442707
 211	1	4	-0.0747602256148	11.414476655540241	-2.7576188443469976	-5.229007965271887
 212	1	4	-0.0747602256148	8.699340632983457	-3.9547647970712037	-5.890921257849222
 213	1	2	0.0411173219023	2.3817928241273165	3.797791740099365	-5.09367322819284
 214	1	2	0.0493872767323	3.439824919650162	4.471655238301333	-2.6738457631378303
 215	1	2	0.0493864465891	4.732753736757206	6.782815835022183	-2.955954979681904
 216	1	2	0.0411173152841	4.514254873834295	7.544617029587484	-5.577497593651831
 217	1	2	0.0861045002907	5.097853550359038	2.02787293810921	-4.094343284789082
 218	1	2	0.0851597206542	8.833692740005302	4.192423386019483	-4.9402091296809285
 219	1	2	0.0846713007392	7.6219031244148905	6.290995341863632	-4.5454818647349775
 220	1	2	0.034011099193	2.91978161933248	5.774289626574677	-6.851594131132539
 221	1	2	0.034011099193	4.445281801885366	4.970681895259329	-6.355979828270604
 222	1	2	0.0851357626922	9.694825191988487	2.4003578733557243	-5.579927035060022
 223	1	2	0.0840090236298	10.714717680444046	0.3178222767293013	-6.19849946475257
 224	1	2	0.0840090236298	7.190291243413151	-1.8183624272429997	-4.972820754619904
 225	1	2	0.0851357626922	6.133971757188679	0.22958979803087143	-4.338577515776739
 226	1	2	0.0246564083843	10.906604517955024	-1.5560047592052202	-8.196711205532532
 227	1	2	0.0246564083843	9.277399119573657	-2.2532445595192483	-8.573119615033526
 228	1	2	0.0246564083843	10.695884129222957	-3.349801658494269	-8.323035596976165
 229	1	2	0.0246564083843	12.105448379925228	-1.9109469227880647	-5.419219908493509
 230	1	2	0.0246564083843	11.887826499104095	-3.702730798410701	-5.5661541796714555
 231	1	2	0.0246564083843	11.191422974236504	-2.820576778682363	-4.144651933444207
 232	1	2	0.0246564083843	7.761777163017197	-3.8164471015021286	-6.467998683224094
 233	1	2	0.0246564083843	8.463669903237358	-4.038815616177589	-4.810401930419822
 234	1	2	0.0246564083843	9.204914535486578	-4.8814424920564266	-6.231365671409853
 235	1	2	0.0333913854612	2.5105444121343554	7.840739655877763	-3.777061383764582
 236	1	2	0.0333913854865	1.3050074928611266	5.702664394614341	-3.491198123721311
 237	1	1	0.0647878772074	-8.104602490946426	10.826390503876386	-0.34395247920161953
 238	1	4	-0.0461252212321	0.6271943845890819	8.368430303368925	-5.0200531814010265
 239	1	4	-0.0171871909276	-0.3312306842386197	9.152278065350794	-5.947715470964763
 240	1	4	-0.0172184501778	0.46093200477810914	10.549058618636666	-6.148582641234557
 241	1	4	-0.0461257660615	1.7272353181788396	10.31296084351783	-5.285101333356807
 242	1	4	-0.0610547704878	2.6128468866739527	9.303363852422581	-6.034813354948465
 243	1	4	-0.0610547661056	1.8533773705659389	7.967147840838281	-5.858126811917001
 244	1	3	-0.0460532386513	-1.341842814552809	10.011071283244505	-5.272084091467347
 245	1	3	-0.0468938850378	-0.7137960835760757	11.128112037211718	-5.441623047715757
 246	1	3	-0.0655757797683	-2.5430127221351646	9.898770563507068	-4.585416507067847
 247	1	3	-0.0261091222654	-3.1088729149408327	11.089953401651396	-4.031273828411564
 248	1	3	-0.0721273413188	-2.400273682482491	12.321095856116328	-4.258480682563265
 249	1	3	-0.075591499516	-1.1841387291999221	12.342754778479021	-4.973392947450709
 250	1	4	-0.0574372549304	1.247499907477033	9.440344446915322	-4.117547454471886
 251	1	3	-0.0266927623047	-4.365712623896204	11.040374628281072	-3.1877073572760195
 252	1	3	-0.072544623331	-4.843127378443487	12.18309328487057	-2.4989701112795117
 253	1	3	-0.0801360777024	-5.964180472056695	12.114425901881447	-1.6653896341726604
 254	1	3	-0.0686276200871	-6.647267450307636	10.909205849153963	-1.4930235857537308
 255	1	3	-0.0801360777024	-6.210084837200666	9.774474466712261	-2.1791343803772447
 256	1	3	-0.072544623331	-5.089471003950813	9.835694571189922	-3.011537957698257
 257	1	4	-0.0747602256148	-7.560396678873154	11.29748262761851	1.3807332733497883
 258	1	4	-0.0747602256148	-9.42688208148547	12.014044917754305	-0.9108926944273534
 259	1	4	-0.0747602256148	-8.823847595016735	9.102128340838739	-0.2781664367031249
 260	1	2	0.0411173219023	0.12529743147315475	7.510631457865609	-4.524233860371551
 261	1	2	0.0493872767323	-0.7261525587320432	8.641854674063676	-6.85327998256709
 262	1	2	0.0493864465891	0.5889836077348796	10.934005920386138	-7.183693916342699
 263	1	2	0.0411173152841	2.2493035228599845	11.259351089996297	-5.030079097009793
 264	1	2	0.0861045002907	-2.962721069236737	8.91414254029025	-4.473665581928912
 265	1	2	0.0851597206542	-2.745447214921484	13.268543308060119	-3.88269337794959
 266	1	2	0.0846713007392	-0.6293648829915859	13.25880494504598	-5.127823358626283
 267	1	2	0.034011099193	2.073677754629367	9.05662944939297	-3.475441189472737
 268	1	2	0.034011099193	0.5146786991171335	9.944007982040407	-3.449926199595107
 269	1	2	0.0851357626922	-4.35881527858211	13.142096589723334	-2.562336752419265
 270	1	2	0.0840090236298	-6.2881238334038745	13.005481653557936	-1.1414666283375219
 271	1	2	0.0840090236298	-6.72266774257095	8.828830531138289	-2.0655402685829745
 272	1	2	0.0851357626922	-4.808892944242276	8.915838018221763	-3.4945536969570625
 273	1	2	0.0246564083843	-7.150851982665374	12.32817920906194	1.3760440507166063
 274	1	2	0.0246564083843	-6.779709588006174	10.590475061011082	1.7292783592619205
 275	1	2	0.0246564083843	-8.431299838244412	11.250408248275763	2.066646175843001
 276	1	2	0.0246564083843	-9.019101850273318	13.045599561969002	-0.9201743446930344
 277	1	2	0.0246564083843	-10.287148319488862	11.963913689421751	-0.2120414157583097
 278	1	2	0.0246564083843	-9.760839616088697	11.735850256228016	-1.9310028577822749
 279	1	2	0.0246564083843	-8.050319547596924	8.391488145340745	0.07935317450369705
 280	1	2	0.0246564083843	-9.167093576504328	8.80262891369039	-1.2894080197733748
 281	1	2	0.0246564083843	-9.683873291051965	9.089238430445508	0.4221396195102818
 282	1	2	0.0333913854612	2.806095419348111	9.589611609098263	-7.090677946843385
 283	1	2	0.0333913854865	1.585033404165966	7.459738767965181	-6.809515848254288
 284	1	1	0.0647878772074	9.091176412559246	1.760810706830954	-12.79938400445085
 285	1	4	-0.0461252212321	4.5891616504743995	8.291941429027176	-6.378483960722177
 286	1	4	-0.0171871909276	6.013561941754538	7.9054703194705365	-5.914504282633663
 287	1	4	-0.0172184501778	6.814140533576316	9.301564370138687	-6.084388301910488
 288	1	4	-0.0461257660615	5.699757634495819	10.23239893041857	-6.628965188700134
 289	1	4	-0.0610547704878	4.7373288624355725	10.526125961434087	-5.465729468838756
 290	1	4	-0.0610547661056	3.9778593463275587	9.189909949849788	-5.2890429258072915
 291	1	3	-0.0460532386513	6.943325164017776	7.431727568831854	-6.975847105073224
 292	1	3	-0.0468938850378	7.589437008063795	8.54394684828711	-7.104198027903901
 293	1	3	-0.0655757797683	7.1882863353168185	6.304567537246056	-7.748140609999492
 294	1	3	-0.0261091222654	8.210911787926616	6.387825621722591	-8.744882148736545
 295	1	3	-0.0721273413188	8.929654384691851	7.629816579761344	-8.84644547747851
 296	1	3	-0.075591499516	8.61547115997875	8.725706356282288	-8.015261154343289
 297	1	4	-0.0574372549304	4.815527860189557	9.321332706765734	-7.490872110791642
 298	1	3	-0.0266927623047	8.476096054160223	5.236355745796389	-9.692248461087075
 299	1	3	-0.072544623331	9.368572089314744	5.364842347018234	-10.785439885303955
 300	1	3	-0.0801360777024	9.556303764555208	4.321433639790413	-11.697792200910474
 301	1	3	-0.0686276200871	8.865653570723858	3.1172289077742406	-11.550257380781225
 302	1	3	-0.0801360777024	7.998102546577442	2.9579142030250978	-10.467914544451995
 303	1	3	-0.072544623331	7.804228496878576	3.9971393652894553	-9.55421716841878
 304	1	4	-0.0747602256148	8.578808468539117	2.381343403308593	-14.486110705058506
 305	1	4	-0.0747602256148	10.883189867808547	1.245507390283107	-12.858695033444313
 306	1	4	-0.0747602256148	8.043303835293546	0.2696517241146168	-12.38329593675497
 307	1	2	0.0411173219023	3.9703269453907843	7.402697607250067	-6.623116835077445
 308	1	2	0.0493872767323	6.126071285074108	7.3531253008834145	-4.955964227076363
 309	1	2	0.0493864465891	7.432762646846962	9.657285366928344	-5.2318589807633895
 310	1	2	0.0411173152841	6.107904020734779	11.146171700186907	-7.110298651727569
 311	1	2	0.0861045002907	6.567446476386404	5.441597061959122	-7.58088171383457
 312	1	2	0.0851597206542	9.715638771268509	7.789793834748979	-9.563838927367996
 313	1	2	0.0846713007392	9.131621375409361	9.672853626496256	-8.100535321810142
 314	1	2	0.034011099193	3.8771182187294566	9.809190296125696	-7.842283276406245
 315	1	2	0.034011099193	5.330669296188166	8.909059477729102	-8.385904012757713
 316	1	2	0.0851357626922	9.920180001297897	6.268255517534138	-10.979950128674272
 317	1	2	0.0840090236298	10.23353370805361	4.463979668609323	-12.531131989530397
 318	1	2	0.0840090236298	7.452686551434969	2.034322609035831	-10.328676368095385
 319	1	2	0.0851357626922	7.110311101463432	3.8006493956756966	-8.755446444004416
 320	1	2	0.0246564083843	9.202555515259707	3.2533778142526835	-14.769976690757279
 321	1	2	0.0246564083843	7.5111684176630575	2.681975120377035	-14.462006712487895
 322	1	2	0.0246564083843	8.715783702272011	1.5720018421987234	-15.23268209669099
 323	1	2	0.0246564083843	11.51013627303655	2.116679881074143	-13.138824550383582
 324	1	2	0.0246564083843	11.007894110067234	0.4431613488458126	-13.614773026612072
 325	1	2	0.0246564083843	11.192453477146653	0.8682838718607027	-11.862902340617046
 326	1	2	0.0246564083843	6.972999273099772	0.5618316026273202	-12.36734404848114
 327	1	2	0.0246564083843	8.336902504622541	-0.12674448988465414	-11.389919314876195
 328	1	2	0.0246564083843	8.197019200729713	-0.5138275828287782	-13.153211959461556
 329	1	2	0.0333913854612	5.253239607108322	10.889493254042478	-4.551435684438108
 330	1	2	0.0333913854865	4.047938862005248	8.750584529301552	-4.2708604341377
 331	1	1	0.0647878772074	-1.9652661463350531	12.659504407752014	4.288356548073855
 332	1	4	-0.0461252212321	3.0976081595056524	11.739811720290813	-4.52488530290746
 333	1	4	-0.0171871909276	1.931232976527078	12.75134493099052	-4.624498284909012
 334	1	4	-0.0172184501778	2.715981702897801	14.152810634432686	-4.821801550302355
 335	1	4	-0.0461257660615	4.194574957028962	13.686601776202204	-4.786059427460329
 336	1	4	-0.0610547704878	4.474748011054969	12.945905023967763	-6.104594004567465
 337	1	4	-0.0610547661056	3.715278494946955	11.609689012383464	-5.927907461536001
 338	1	3	-0.0460532386513	1.486728662205551	13.36823106251204	-3.3449640550870967
 339	1	3	-0.0468938850378	2.1053484923145884	14.49155927191555	-3.507473869418954
 340	1	3	-0.0655757797683	0.7496003408337759	13.051161827047162	-2.2122496569472387
 341	1	3	-0.0261091222654	0.6802153114369549	14.02511532942896	-1.1668843079453541
 342	1	3	-0.0721273413188	1.3572531552608353	15.275050767754628	-1.3876301528619326
 343	1	3	-0.075591499516	2.0817680584178655	15.513726644035183	-2.574502033557179
 344	1	4	-0.0574372549304	4.209624382013131	12.508360877453988	-3.8030490514598303
 345	1	3	-0.0266927623047	-0.022786428999785002	13.721997201511867	0.13987368551439783
 346	1	3	-0.072544623331	0.041839887497548744	14.611208273926723	1.2413349321821192
 347	1	3	-0.0801360777024	-0.5502071549640979	14.293866672108406	2.4681626573610878
 348	1	3	-0.0686276200871	-1.2274033119123375	13.084884698750122	2.637399778316375
 349	1	3	-0.0801360777024	-1.3247446476090277	12.202215273051461	1.5599438305850573
 350	1	3	-0.072544623331	-0.7335357018931887	12.512085569829258	0.3323969428123732
 351	1	4	-0.0747602256148	-0.6128481706081539	12.613618354350006	5.577344053457034
 352	1	4	-0.0747602256148	-3.2233545779344466	13.949525638148067	4.7714986114498785
 353	1	4	-0.0747602256148	-2.7947695195581694	10.984567891475566	4.253240308879322
 354	1	2	0.0411173219023	2.7781457134475787	10.770768869728506	-4.086187332393944
 355	1	2	0.0493872767323	1.0903170906627566	12.522813451719708	-5.315277732984387
 356	1	2	0.0493864465891	2.390956835278794	14.823008828793313	-5.647168260138052
 357	1	2	0.0411173152841	4.898216135720846	14.522383846359741	-4.587053214360634
 358	1	2	0.0861045002907	0.30312282919780653	12.073067519427939	-2.166151207881965
 359	1	2	0.0851597206542	1.362748601397766	16.069477215001715	-0.6617693122139929
 360	1	2	0.0846713007392	2.6164124832286704	16.43974047819237	-2.7401051674895767