LAMMPS data file TraPPE CO2

3 atoms
2 bonds
1 angles
0 dihedrals
0 impropers

2 atom types
1 bond types
1 angle types

-10.000000 10.000000 xlo xhi
-10.000000 10.000000 ylo yhi
-10.000000 10.000000 zlo zhi

Masses

   1	16.00	# O
   2	12.01	# C

Pair Coeffs

   1	0.15699 	3.05	# O
   2	0.05365 	2.80	# C

Bond Coeffs

   1	500.0	1.160	# O,C

Angle Coeffs

   1	200.0	180.0	# O,C,O

Atoms

   1	1	2	 0.700    1.160  0.000  0.000
   2	1	1	-0.350    0.000  0.000  0.000
   3	1	1	-0.350    2.320  0.000  0.000

Bonds

   1	1	1	2
   2	1	1	3

Angles

   1	1	2	1	3

