pySIMM System Object

300 atoms
299 bonds
554 angles
740 dihedrals
20 impropers

5 atom types
6 bond types
3 angle types
5 dihedral types
1 improper types

-11.149221 11.149221 xlo xhi
-11.149221 11.149221 ylo yhi
-11.149221 11.149221 zlo zhi

Masses

   1	1.008	# H_
   2	15.9994	# O_3
   3	12.011	# C_2
   4	15.9994	# O_2
   5	12.011	# C_3

Pair Coeffs

   1	0.0152	2.84642140446	# H_
   2	0.0957	3.03315377578	# O_3
   3	0.0951	3.47299047293	# C_2
   4	0.0957	3.03315377578	# O_2
   5	0.0951	3.47299047293	# C_3

Bond Coeffs

   1	350.0	1.09	# C_3,H_
   2	350.0	1.43	# C_2,C_3
   3	350.0	1.42	# O_3,C_3
   4	350.0	1.32	# O_3,C_2
   5	700.0	1.22	# O_2,C_2
   6	350.0	1.53	# C_3,C_3

Angle Coeffs

   1	50.0	109.471	# X,C_3,X
   2	50.0	104.51	# X,O_3,X
   3	50.0	120.0	# X,C_2,X

Dihedral Coeffs

   1	0.083333	-1	6	# O_2,C_2,C_3,X
   2	0.166667	-1	2	# X,O_3,C_2,X
   3	0.111111	1	3	# X,C_3,C_3,X
   4	0.166667	1	3	# X,C_2,C_3,X
   5	0.111111	1	3	# X,O_3,C_3,X

Improper Coeffs

   1	20.0	0.0	# C_2,X,X,X

Atoms

   1	1	2	0	6.42095	-2.92818	-1.63011
   2	1	4	0	6.68938	-2.83786	-3.79175
   3	1	5	0	4.47398	-3.31535	-3.1103
   4	1	5	0	3.92351	-4.12266	-1.89843
   5	1	5	0	3.70993	-1.96063	-3.20477
   6	1	3	0	5.91267	-3.0491	-2.8658
   7	1	5	0	7.31189	-4.00379	-1.26807
   8	1	1	0	4.39331	-5.10421	-1.79679
   9	1	1	0	3.96754	-3.58041	-0.951206
  10	1	1	0	3.84246	-1.37429	-2.29197
  11	1	1	0	2.64083	-2.12068	-3.34275
  12	1	1	0	4.07528	-1.36663	-4.04565
  13	1	1	0	6.84592	-4.9863	-1.38056
  14	1	1	0	7.58266	-3.87805	-0.219957
  15	1	1	0	8.22963	-3.97015	-1.86056
  16	1	2	0	1.9698	-5.56152	-3.04148
  17	1	4	0	0.941604	-4.01326	-4.14092
  18	1	5	0	3.03115	-4.74857	-5.09449
  19	1	5	0	4.34806	-4.14083	-4.45063
  20	1	5	0	2.54157	-3.77624	-6.25744
  21	1	3	0	1.89765	-4.7878	-4.12291
  22	1	5	0	0.818435	-6.32953	-2.68938
  23	1	1	0	4.8196	-3.52302	-5.21773
  24	1	1	0	5.02902	-4.96272	-4.2847
  25	1	1	0	1.70591	-4.20342	-6.81106
  26	1	1	0	3.32198	-3.53758	-6.97281
  27	1	1	0	2.21284	-2.80975	-5.86619
  28	1	1	0	0.0216379	-6.35367	-3.43917
  29	1	1	0	0.401476	-5.99836	-1.74304
  30	1	1	0	1.20194	-7.30531	-2.50444
  31	1	2	0	7.05828	-6.95208	-6.02963
  32	1	4	0	5.66987	-7.36761	-4.36693
  33	1	5	0	4.64236	-6.85862	-6.38411
  34	1	5	0	3.33332	-6.25231	-5.64583
  35	1	5	0	5.05274	-5.69457	-7.38474
  36	1	3	0	5.8103	-7.03019	-5.53132
  37	1	5	0	7.87663	-5.9006	-5.47892
  38	1	1	0	2.59981	-6.34118	-6.42342
  39	1	1	0	3.08514	-6.97299	-4.86586
  40	1	1	0	5.77405	-6.01908	-8.13385
  41	1	1	0	5.49312	-4.83158	-6.89535
  42	1	1	0	4.19902	-5.32645	-7.90647
  43	1	1	0	7.86088	-5.89696	-4.38648
  44	1	1	0	7.57048	-4.92151	-5.84731
  45	1	1	0	8.90712	-6.06297	-5.79143
  46	1	2	0	5.9372	10.9972	-5.8361
  47	1	4	0	6.68334	-9.56981	-6.74026
  48	1	5	0	4.35453	-9.9908	-7.13534
  49	1	5	0	4.40551	-8.24933	-7.24869
  50	1	5	0	3.66356	-9.91898	-5.72216
  51	1	3	0	5.72685	-10.323	-6.70431
  52	1	5	0	6.78313	9.94939	-6.30253
  53	1	1	0	5.22214	-8.10611	-7.93229
  54	1	1	0	3.49214	-7.91267	-7.67843
  55	1	1	0	2.70667	-9.44748	-5.78458
  56	1	1	0	4.21794	-9.3549	-4.96106
  57	1	1	0	3.56072	-10.9199	-5.32374
  58	1	1	0	7.81127	10.2987	-6.41873
  59	1	1	0	6.44232	9.48986	-7.22619
  60	1	1	0	6.76514	9.1739	-5.54083
  61	1	2	0	0.338082	-10.0432	-11.0218
  62	1	4	0	0.529827	11.0063	-10.7584
  63	1	5	0	2.90226	10.6092	-10.1058
  64	1	5	0	3.8514	10.8838	-8.30562
  65	1	5	0	4.11199	10.1392	-10.8429
  66	1	3	0	1.63575	-10.7662	-10.8643
  67	1	5	0	-0.595722	-8.8188	-10.8927
  68	1	1	0	3.46307	10.1792	-7.57251
  69	1	1	0	4.76239	10.3161	-8.37144
  70	1	1	0	4.3499	10.6888	10.5997
  71	1	1	0	4.70724	10.7352	-10.3466
  72	1	1	0	4.62558	9.17972	-10.6209
  73	1	1	0	-0.638565	-8.1429	10.5538
  74	1	1	0	-0.564156	-8.19867	-10.0082
  75	1	1	0	-1.60494	-9.22435	-10.8555
  76	1	2	0	2.78066	9.20276	7.25773
  77	1	4	0	4.09298	9.92665	8.68381
  78	1	5	0	1.84668	9.51602	9.5948
  79	1	5	0	2.27331	9.33175	-11.0473
  80	1	5	0	1.1318	10.7806	8.88077
  81	1	3	0	2.97762	9.45068	8.57693
  82	1	5	0	3.15171	10.2348	6.28373
  83	1	1	0	1.40422	9.00885	-10.4781
  84	1	1	0	2.71507	8.31741	-10.949
  85	1	1	0	1.01106	10.7164	7.80898
  86	1	1	0	1.71332	-10.6076	8.96937
  87	1	1	0	0.133839	10.9708	9.24305
  88	1	1	0	3.01736	-11.0412	6.65118
  89	1	1	0	2.53121	10.1105	5.39754
  90	1	1	0	4.19661	10.1103	5.99299
  91	1	2	0	-1.36392	9.31938	-10.0938
  92	1	4	0	-2.00162	10.1626	10.2909
  93	1	5	0	-0.685473	8.18898	10.0358
  94	1	5	0	0.817754	8.32523	9.40747
  95	1	5	0	-0.584599	7.0055	11.1004
  96	1	3	0	-1.40432	9.24701	10.8367
  97	1	5	0	-2.59195	9.48588	-9.34853
  98	1	1	0	1.39497	7.43874	9.68422
  99	1	1	0	0.752419	8.14967	8.34229
 100	1	1	0	-0.193186	6.09088	10.6531
 101	1	1	0	-1.55983	6.75034	-10.7725
 102	1	1	0	0.0742853	7.24741	-10.3614
 103	1	1	0	-3.35367	8.76665	-9.65586
 104	1	1	0	-2.97765	10.501	-9.46207
 105	1	1	0	-2.37618	9.32183	-8.29161
 106	1	2	0	-4.53759	8.49913	8.1953
 107	1	4	0	-3.50374	10.2707	8.03639
 108	1	5	0	-2.08179	8.45412	7.46785
 109	1	5	0	-1.63234	7.67421	8.83685
 110	1	5	0	-1.15168	9.58455	6.9489
 111	1	3	0	-3.41129	9.08021	7.75456
 112	1	5	0	-5.07943	7.3229	7.58538
 113	1	1	0	-2.5422	7.30711	9.32121
 114	1	1	0	-1.15005	6.7485	8.51264
 115	1	1	0	-1.53996	10.01	6.03612
 116	1	1	0	-0.150724	9.2318	6.71682
 117	1	1	0	-1.14087	10.4147	7.63431
 118	1	1	0	-4.86156	7.22005	6.53142
 119	1	1	0	-6.16352	7.36559	7.68699
 120	1	1	0	-4.71817	6.44356	8.11783
 121	1	2	0	-3.88025	9.55862	4.82521
 122	1	4	0	-4.59852	7.66026	3.92591
 123	1	5	0	-2.3414	7.67499	4.61608
 124	1	5	0	-2.01521	7.44347	6.20843
 125	1	5	0	-2.39927	6.16548	4.1114
 126	1	3	0	-3.68666	8.27249	4.47913
 127	1	5	0	-5.22362	10.0432	5.03698
 128	1	1	0	-2.62198	6.60787	6.56302
 129	1	1	0	-0.993234	7.04666	6.21152
 130	1	1	0	-2.61768	6.10951	3.04304
 131	1	1	0	-3.17186	5.5815	4.62143
 132	1	1	0	-1.44434	5.65774	4.27757
 133	1	1	0	-5.16353	11.0952	5.31413
 134	1	1	0	-5.71863	9.50537	5.84384
 135	1	1	0	-5.83367	9.96645	4.1383
 136	1	2	0	-3.77666	10.3486	1.99126
 137	1	4	0	-3.11839	8.27612	1.39849
 138	1	5	0	-1.50448	9.54015	2.46789
 139	1	5	0	-1.23475	8.38132	3.60567
 140	1	5	0	-1.35419	10.8739	3.29273
 141	1	3	0	-2.85975	9.3542	1.92752
 142	1	5	0	-5.06366	10.1345	1.37453
 143	1	1	0	-0.739452	7.6018	3.02166
 144	1	1	0	-0.418641	8.70599	4.25315
 145	1	1	0	-2.05002	10.928	4.11818
 146	1	1	0	-1.56049	-10.5384	2.72304
 147	1	1	0	-0.344522	10.9717	3.6971
 148	1	1	0	-5.65469	11.0426	1.4913
 149	1	1	0	-5.59706	9.31097	1.85202
 150	1	1	0	-4.96687	9.92305	0.307842
 151	1	2	0	-1.71484	-9.50938	0.648549
 152	1	4	0	-2.62493	11.0448	-0.431489
 153	1	5	0	-0.364351	10.7983	0.0185973
 154	1	5	0	-0.531525	9.56779	1.12291
 155	1	5	0	0.793327	-10.6244	0.640796
 156	1	3	0	-1.63333	-10.739	0.070248
 157	1	5	0	-2.83011	-8.64651	0.355209
 158	1	1	0	0.463367	9.31931	1.50409
 159	1	1	0	-0.780043	8.69047	0.521216
 160	1	1	0	0.668356	-10.4599	1.71039
 161	1	1	0	0.841331	-9.63183	0.202192
 162	1	1	0	1.75864	-11.1143	0.503809
 163	1	1	0	-3.7769	-9.10811	0.642705
 164	1	1	0	-2.85364	-8.38796	-0.704552
 165	1	1	0	-2.71119	-7.72747	0.930122
 166	1	2	0	2.71458	10.9005	-2.21658
 167	1	4	0	2.0558	-9.32086	-1.88744
 168	1	5	0	0.4167	-10.7624	-2.84692
 169	1	5	0	-0.00328462	10.4435	-1.6049
 170	1	5	0	-0.731427	-9.71239	-2.57254
 171	1	3	0	1.78655	-10.4133	-2.36021
 172	1	5	0	4.1084	-11.0567	-2.0498
 173	1	1	0	-0.870216	9.89941	-1.98669
 174	1	1	0	0.750963	9.65426	-1.55207
 175	1	1	0	-0.53781	-9.1389	-1.66894
 176	1	1	0	-1.69707	-10.2112	-2.50752
 177	1	1	0	-0.945659	-8.98217	-3.32521
 178	1	1	0	4.30192	-10.7058	-1.0341
 179	1	1	0	4.42764	-10.2943	-2.76052
 180	1	1	0	4.70267	10.3444	-2.22315
 181	1	2	0	0.689677	-7.44661	-6.18191
 182	1	4	0	0.871937	-8.38097	-4.47631
 183	1	5	0	0.157289	-9.91824	-5.93186
 184	1	5	0	0.581557	-10.9833	-4.57123
 185	1	5	0	-1.39422	-10.3355	-5.9612
 186	1	3	0	0.305725	-8.5392	-5.50903
 187	1	5	0	-0.334391	-6.5944	-6.69729
 188	1	1	0	0.101416	10.3443	-4.73213
 189	1	1	0	1.59677	11.0149	-4.73425
 190	1	1	0	-1.56706	-11.0939	-6.72683
 191	1	1	0	-2.03947	-9.48535	-6.17923
 192	1	1	0	-1.80031	-10.7606	-5.03512
 193	1	1	0	-1.10013	-7.07925	-7.30758
 194	1	1	0	0.14668	-5.83776	-7.3122
 195	1	1	0	-0.82948	-6.11369	-5.86117
 196	1	2	0	2.18873	-7.85417	-10.8562
 197	1	4	0	1.52601	-7.33371	-8.9945
 198	1	5	0	2.16132	-9.60107	-8.70902
 199	1	5	0	0.703286	-9.46444	-7.59721
 200	1	5	0	1.29407	11.127	-8.18107
 201	1	3	0	1.79406	-8.36424	-9.59345
 202	1	5	0	2.05983	-8.05929	9.99041
 203	1	1	0	0.17905	-8.61449	-7.91126
 204	1	1	0	-0.291463	-9.63572	-8.11958
 205	1	1	0	1.47669	10.761	-7.14586
 206	1	1	0	1.53785	10.1083	-8.45104
 207	1	1	0	0.277452	10.8092	-8.53543
 208	1	1	0	1.14706	-8.44836	9.57955
 209	1	1	0	2.86858	-8.68173	9.61692
 210	1	1	0	2.18491	-7.08307	9.52486
 211	1	2	0	6.68748	10.555	11.0193
 212	1	4	0	6.98928	10.9414	-9.16621
 213	1	5	0	5.97242	-9.51022	-10.1441
 214	1	5	0	4.04583	-9.23434	-9.69263
 215	1	5	0	6.07454	-9.16864	10.5818
 216	1	3	0	6.75086	-10.8287	-10.2307
 217	1	5	0	7.57969	9.6488	10.3362
 218	1	1	0	4.18568	-8.1582	-9.76151
 219	1	1	0	3.78782	-9.48332	-10.7051
 220	1	1	0	5.54162	-9.87398	9.944
 221	1	1	0	7.09753	-9.12155	10.1781
 222	1	1	0	5.61619	-8.22375	10.3676
 223	1	1	0	8.01566	10.1512	9.47206
 224	1	1	0	6.9619	8.83052	9.95342
 225	1	1	0	8.3579	9.22003	10.9641
 226	1	2	0	10.9808	-7.72907	-8.00416
 227	1	4	0	9.06421	-8.10448	-7.38335
 228	1	5	0	9.28477	-9.00555	-9.54092
 229	1	5	0	7.50721	-8.73359	-9.66373
 230	1	5	0	9.65399	-10.5611	-9.47758
 231	1	3	0	9.84417	-8.45671	-8.24163
 232	1	5	0	-10.0419	-8.25728	-7.55478
 233	1	1	0	7.24533	-8.62887	-8.65484
 234	1	1	0	7.42378	-7.71289	-9.93008
 235	1	1	0	9.36082	-11.0559	-10.4037
 236	1	1	0	9.20312	-11.0509	-8.62232
 237	1	1	0	10.7144	-10.8057	-9.34795
 238	1	1	0	-9.42192	-8.56428	-8.39602
 239	1	1	0	-10.1341	-9.08984	-6.85836
 240	1	1	0	-9.51426	-7.44551	-7.04897
 241	1	2	0	-8.92966	-6.46006	-9.82603
 242	1	4	0	-10.3385	-5.02901	-10.5705
 243	1	5	0	-11.0845	-7.1814	-11.0868
 244	1	5	0	10.5627	-8.57124	-10.5344
 245	1	5	0	-9.99633	-7.66336	10.138
 246	1	3	0	-10.1924	-6.21514	-10.3198
 247	1	5	0	-8.26166	-5.4189	-9.03777
 248	1	1	0	-10.8143	-9.01128	-10.1387
 249	1	1	0	10.3685	-9.16048	10.8599
 250	1	1	0	-9.22883	-8.29857	10.5951
 251	1	1	0	-9.47855	-6.83145	9.64599
 252	1	1	0	-10.4535	-8.24797	9.33712
 253	1	1	0	-8.0233	-4.54285	-9.64784
 254	1	1	0	-7.32617	-5.80617	-8.63459
 255	1	1	0	-8.8841	-5.10524	-8.19856
 256	1	2	0	9.6402	-3.90017	-9.32981
 257	1	4	0	8.48125	-5.7181	-9.04795
 258	1	5	0	9.09814	-5.28823	10.9808
 259	1	5	0	10.0038	-6.50493	10.4411
 260	1	5	0	9.5676	-3.99517	10.2048
 261	1	3	0	9.1308	-5.04688	-9.83915
 262	1	5	0	10.4926	-3.97392	-8.16633
 263	1	1	0	10.3848	-6.20734	9.46118
 264	1	1	0	9.34144	-7.31781	10.1309
 265	1	1	0	9.3603	-4.07591	9.13667
 266	1	1	0	10.6332	-3.81169	10.2771
 267	1	1	0	9.07386	-3.09459	10.5589
 268	1	1	0	10.9883	-4.93787	-8.04835
 269	1	1	0	9.90731	-3.77357	-7.2687
 270	1	1	0	-11.0415	-3.20083	-8.25718
 271	1	2	0	5.96145	-4.597	8.17918
 272	1	4	0	6.31739	-2.69268	9.28444
 273	1	5	0	6.3533	-4.66972	10.5674
 274	1	5	0	7.63922	-5.58803	10.409
 275	1	5	0	6.38223	-3.73304	-10.4712
 276	1	3	0	6.22759	-3.91264	9.31303
 277	1	5	0	6.72512	-4.25695	7.0103
 278	1	1	0	7.36001	-6.55783	10.7417
 279	1	1	0	7.77633	-5.80708	9.34336
 280	1	1	0	7.24373	-3.07382	-10.4688
 281	1	1	0	6.39317	-4.30782	-9.55136
 282	1	1	0	5.50483	-3.08478	-10.4397
 283	1	1	0	6.26685	-3.39885	6.51637
 284	1	1	0	6.69571	-5.10487	6.32564
 285	1	1	0	7.77141	-4.03365	7.23113
 286	1	2	0	1.92788	-3.45713	10.2182
 287	1	4	0	3.10681	-4.59331	8.74685
 288	1	5	0	3.73498	-4.83984	10.9652
 289	1	5	0	5.07366	-5.58809	10.711
 290	1	5	0	2.85782	-5.22779	-10.1458
 291	1	3	0	2.97295	-4.23558	9.9053
 292	1	5	0	2.28201	-2.24551	10.9162
 293	1	1	0	5.25196	-6.26562	-10.7514
 294	1	1	0	4.93663	-6.20783	9.82297
 295	1	1	0	1.8463	-5.4772	-10.4723
 296	1	1	0	2.77694	-4.41937	-9.42759
 297	1	1	0	3.32429	-6.06357	-9.66389
 298	1	1	0	2.74117	-2.41675	-10.4088
 299	1	1	0	1.36609	-1.68188	11.0865
 300	1	1	0	2.95804	-1.63418	10.3154

Velocities

   1	0.000160087	0.000247508	0.000285585
   2	0.0001489	0.00129161	0.000339916
   3	0.000341189	0.000205775	0.000173015
   4	0.000215468	0.000458162	0.000281156
   5	0.000292212	0.000146359	-1.96545e-05
   6	0.000272285	0.000442801	0.000241381
   7	6.83396e-05	0.000173749	0.000192851
   8	0.000298075	0.000520865	0.000603208
   9	0.000267001	0.000723317	0.00010647
  10	0.000474027	0.00036586	-0.000202708
  11	0.00025212	4.44038e-05	0.000261077
  12	0.000107716	-4.29787e-05	-0.000223765
  13	-3.96323e-05	0.000215348	0.000170646
  14	0.000117561	9.99751e-05	0.000176865
  15	5.07916e-05	0.000142134	0.000158324
  16	0.000615615	-0.000613464	-0.000190165
  17	0.00033925	-0.000115242	-0.000621266
  18	0.000663999	-0.000265567	6.97442e-05
  19	0.000612829	-0.000337314	0.000464891
  20	0.00134496	7.77886e-05	0.000125432
  21	0.000467905	-1.80144e-05	2.65423e-05
  22	-0.000998444	0.0027806	0.00303201
  23	0.00133182	-0.000925424	0.000436458
  24	8.09066e-05	-0.0005962	0.00130067
  25	0.000782484	0.00072879	0.000302462
  26	0.0014666	-0.000830027	2.25816e-05
  27	0.00255305	0.000487257	0.000200796
  28	-0.0008503	0.00114458	0.0028922
  29	-0.000322521	0.00997191	0.00067083
  30	-0.00541411	0.00166975	0.00855385
  31	0.000343157	-0.000424441	0.00158063
  32	0.000253677	-0.001123	0.0012165
  33	0.000657457	-0.00164668	0.000474815
  34	0.000362458	-0.000508776	-0.000361474
  35	0.000794129	-0.0012334	0.000783326
  36	0.000314782	-0.000490682	0.00137163
  37	9.63655e-05	0.000212215	0.000745728
  38	0.000251402	-0.000798529	-0.000539152
  39	-6.28765e-05	-0.000351707	-0.000455499
  40	0.000978734	-0.00124936	0.00103233
  41	0.000723356	-0.00112875	0.000802995
  42	0.000976946	-0.00115414	0.000420396
  43	0.000813028	0.000635444	0.000726988
  44	-0.000577496	-5.62166e-05	0.000639419
  45	-4.04753e-05	0.000612666	6.76953e-05
  46	0.00014375	-0.00313314	0.000611317
  47	0.000732894	-0.00197738	0.0020489
  48	0.00105927	-0.00318151	-0.00135352
  49	0.00109357	-0.00241996	0.000163426
  50	-0.000832861	-0.00442221	-0.00208637
  51	0.000808269	-0.002365	0.00105565
  52	0.00159035	-0.00233272	0.00119571
  53	-2.85265e-05	-0.0015736	-0.000706699
  54	0.000444994	-0.00211483	0.0014751
  55	-0.00116198	-0.00575731	-0.00406808
  56	-0.00319066	-0.00323956	-0.000842348
  57	-0.000439523	-0.00458158	-0.00247793
  58	0.00108566	-0.00131564	8.4617e-05
  59	0.000776143	-0.00365883	0.00196795
  60	0.00372853	-0.00154348	0.00196251
  61	0.00120165	-0.00434144	0.00142409
  62	0.00193039	0.000807436	0.00239025
  63	0.000256437	-0.00188965	-0.00052292
  64	0.00186409	-0.00254573	-0.00343205
  65	0.000533518	0.00395222	-0.00213876
  66	0.00221382	-0.000327932	0.000811646
  67	0.000864104	-0.00570131	0.00035892
  68	0.00388912	-0.00677165	-0.00695386
  69	0.00391059	0.00148719	-0.00625946
  70	-0.00715938	0.00749224	-0.00485681
  71	0.0189953	0.015463	0.00595144
  72	0.00329407	0.00502074	-0.00931709
  73	0.00157216	-0.00584261	2.51579e-05
  74	-0.00105747	-0.00711719	0.00165718
  75	0.00192128	-0.007955	-0.00111691
  76	-0.00126049	-0.0019919	-0.0013126
  77	0.000921198	-0.00412713	-0.00122199
  78	0.00100855	-0.00236928	0.000346631
  79	0.00125003	-0.00208847	0.000258319
  80	0.00219353	-0.00143003	0.00134105
  81	0.000237227	-0.00301811	-0.0010178
  82	-0.000747643	-0.00161449	-0.000632578
  83	0.00106179	-0.00191042	-0.000538134
  84	0.00565824	0.000900556	0.000182667
  85	0.000691166	-0.0010001	0.00145797
  86	0.00482999	-0.00297324	0.00139234
  87	0.00252323	0.000418351	0.00159716
  88	-0.000912331	-0.00188192	7.38459e-05
  89	-0.000316904	-0.00106499	-0.00102509
  90	-0.000609859	-0.00165038	-0.000168894
  91	0.000771058	-0.000194539	-0.00113663
  92	0.000752905	-0.000187932	-0.00111881
  93	-0.000300812	-0.000923108	-0.0012602
  94	-0.000292527	-0.00113966	-0.00119445
  95	-0.000993261	-0.00154667	-0.00204236
  96	0.0010495	-6.19378e-05	-0.00116295
  97	0.000447463	-0.000327618	-0.00157346
  98	-0.000581593	-0.00146451	-0.00170679
  99	-0.00100153	0.000134582	-0.00138455
 100	-0.00156436	-0.0013618	-0.00279551
 101	-0.00124087	-0.00136647	-0.00254804
 102	-0.000794852	-0.00236352	-0.00182655
 103	0.00073138	-0.000390884	-0.00204777
 104	0.00031874	-0.000339334	-0.00174502
 105	0.000146054	-0.000399256	-0.0014563
 106	0.000189957	-0.00104744	0.00102721
 107	-0.00108878	-0.000195658	-0.00219841
 108	-0.000492726	-0.000295777	-0.000817576
 109	-0.000757356	-0.00081694	-0.00112007
 110	-0.000750615	0.000291654	-0.000541093
 111	-0.000577184	-0.000599778	-0.000404638
 112	-0.000220985	-0.000727699	0.000646049
 113	-0.000717656	-0.00122505	-0.00132234
 114	-0.000978558	-0.000753798	-0.00156337
 115	-0.00178662	0.000873116	0.000116338
 116	-0.000844706	0.0008007	-0.001871
 117	0.000371734	-0.000414898	0.000567162
 118	-0.00144579	0.000344736	0.000213717
 119	-9.32802e-05	-0.00118133	0.00214122
 120	0.000579176	-0.00119434	-0.000738556
 121	2.52566e-05	-3.66196e-05	0.000857418
 122	-0.000238464	0.00019588	0.000368563
 123	-4.22722e-05	3.73416e-05	-0.000694885
 124	-0.000187549	-0.000208234	-0.000882323
 125	-0.000259434	0.000151354	-0.00102086
 126	-2.33741e-05	0.00017266	-4.64672e-06
 127	1.70023e-05	0.000178966	0.000471512
 128	-8.13348e-05	-0.000453626	-0.00116742
 129	-2.92866e-05	0.000144174	-0.00109168
 130	-0.000429932	0.000530087	-0.000951401
 131	-0.000325785	8.74688e-05	-0.00114757
 132	-0.000293494	-5.3246e-05	-0.00134519
 133	0.00015824	0.000171726	0.000484949
 134	-0.000399909	0.00033952	0.000325184
 135	0.000375601	0.000318207	0.000179502
 136	-0.000205195	-0.000186386	0.000246836
 137	-7.4146e-05	6.76236e-06	-0.000191337
 138	0.000136701	-1.01341e-05	-0.000581534
 139	0.000131756	0.000118687	-0.000462179
 140	0.000186451	5.85612e-05	-0.000734233
 141	-6.53648e-06	8.02336e-06	-0.000244794
 142	-5.52854e-05	0.000109672	-0.000234365
 143	0.000488525	0.000142341	-0.000204542
 144	-9.11166e-05	0.000375911	-0.000302725
 145	-0.000113166	0.000188634	-0.000928254
 146	0.00048258	-4.07033e-05	-0.000930561
 147	0.000127464	2.64486e-05	-0.000580723
 148	-0.000152846	-3.10675e-05	0.000178133
 149	-0.000202798	-0.000276658	-0.000953438
 150	0.000285667	0.000878118	-0.000344735
 151	0.000268186	-0.000157268	-0.000890317
 152	-6.1666e-05	-0.000285489	-0.000442422
 153	-7.12525e-05	-0.000242168	-0.000908039
 154	-2.87198e-05	-0.000183216	-0.000784057
 155	9.03354e-05	-0.000322363	-0.00125968
 156	7.75462e-05	-0.000148293	-0.000886751
 157	-6.83084e-07	-0.000405642	-0.000386507
 158	5.75961e-05	-0.000334478	-0.00106528
 159	-0.000267771	-0.000119792	-0.000739294
 160	0.000570914	-0.000436593	-0.00111719
 161	-0.000261475	-0.000346956	-0.00133607
 162	-1.94344e-06	-0.000288309	-0.00188783
 163	0.000284563	-0.000639431	0.000172221
 164	-0.000675928	-0.000498399	-0.000387909
 165	0.000174946	-0.000361663	-0.000467064
 166	-0.000164108	4.0772e-05	-0.00209575
 167	-0.000225202	0.000119608	-0.000857006
 168	-0.000476648	0.000418868	-0.000576281
 169	-0.000472677	7.8316e-05	-0.0010569
 170	-0.000449339	0.000489749	-0.00152518
 171	-0.000365263	8.48155e-05	-0.000745264
 172	-0.00035629	2.55735e-05	-0.000370482
 173	-0.000586028	0.00037866	-0.00117218
 174	-0.000525566	-4.14143e-05	-0.00162723
 175	-0.000695531	0.00162848	-0.0021082
 176	-0.000570245	0.000747665	-0.00116181
 177	0.00024803	-0.000636276	-0.00266207
 178	-0.00193331	-1.43856e-05	-6.73886e-05
 179	0.000592697	7.18381e-05	9.47196e-05
 180	-4.0111e-05	2.62778e-05	0.000472333
 181	-0.00367182	0.00483723	0.00525246
 182	0.00547266	0.000998972	0.0023056
 183	0.00116635	0.00324411	0.00104522
 184	-0.000851931	0.00162839	-0.000424713
 185	0.00144188	0.00411665	-0.00247345
 186	0.000151293	0.00281676	0.00440656
 187	-0.00376186	0.0045273	0.00376857
 188	-0.00238687	0.00267533	-0.00188862
 189	-0.0011847	0.000699357	-0.000468687
 190	0.00420482	0.00189751	-0.000960533
 191	0.00286971	0.00365626	-0.00786279
 192	-0.00139393	0.00751838	-0.00193171
 193	-0.003955	0.00202309	0.0058791
 194	-0.00426286	0.00273067	0.000878837
 195	-0.00314227	0.00801376	0.00181985
 196	-0.00168058	0.00229844	0.00140746
 197	0.000272426	-0.000237207	-0.000320407
 198	0.00163282	0.000717214	0.000620398
 199	0.00318534	0.00330127	0.00212341
 200	0.00277172	0.00267484	0.00226992
 201	-0.000230691	-0.000396091	0.000139944
 202	0.00217841	-0.000866862	0.00215891
 203	0.00461569	0.00433056	0.00586991
 204	0.00430618	0.0052978	-0.000449878
 205	0.00597957	0.00350286	0.00171507
 206	-0.00010148	0.00281115	0.000861677
 207	0.00174717	0.00313001	0.00351973
 208	0.00306682	-0.00265406	0.00104646
 209	0.00425852	0.000545779	0.00454061
 210	0.00134597	-0.000845227	0.00213054
 211	-0.000248563	0.00318781	-0.00162824
 212	-0.000749572	-0.00296348	0.000496918
 213	-0.000974584	-0.000638282	0.00192284
 214	-0.000575798	-0.000357669	-0.000473574
 215	-0.00221186	0.00142301	0.00271712
 216	-0.00104523	-0.000476395	0.00144763
 217	0.00160805	0.0026256	0.00285047
 218	-0.000795399	-0.000779511	-0.000950484
 219	-0.00154387	-0.000308517	0.000222837
 220	-0.00397852	0.00328117	0.00214329
 221	-0.00229454	0.000872396	0.00188708
 222	-0.00134902	0.00225414	0.00547669
 223	0.00451091	0.00245257	0.00441487
 224	0.00395089	0.00115036	0.0019502
 225	-0.000425629	0.0056138	0.00711804
 226	-0.00052537	0.00122094	-0.00242872
 227	0.000509355	-0.00239051	0.00284452
 228	-0.00198719	0.000706389	0.00069391
 229	-0.0018861	-5.57243e-05	0.00209791
 230	-0.00220765	0.00103438	0.00306798
 231	-0.00112152	0.00178911	-0.000361202
 232	-0.002923	-0.00157104	0.000278525
 233	-0.00145767	0.00231381	0.00207289
 234	-0.00217618	-0.000859304	-0.000465787
 235	-0.0017278	-0.000170173	0.00347093
 236	-0.00286814	0.002663	0.00351157
 237	-0.002343	0.00139581	0.00448299
 238	-0.00232309	-0.00416064	0.00147941
 239	-0.00794943	-0.00101802	0.000109513
 240	-0.00169882	-0.00295281	0.00154069
 241	-0.00238427	-0.00147107	0.000939376
 242	-0.00102833	-0.000272555	0.000283277
 243	-0.00157566	-0.000152856	-0.000365011
 244	-0.00280108	-5.72865e-05	-0.000763967
 245	-0.00172834	0.000267012	-0.000567898
 246	-0.00169486	-0.000437068	9.57345e-05
 247	-0.000596104	-0.00200598	-0.000227583
 248	-0.00261725	-0.00118943	-0.00182255
 249	-0.0043905	0.000404905	-0.000565559
 250	-0.00087097	0.00104739	-0.000805562
 251	-0.00309029	0.000768362	-0.00114372
 252	-0.00183995	-0.000304666	-5.69508e-05
 253	7.55007e-05	-0.00266953	-0.00101713
 254	-0.000781529	-0.00380079	-0.00159941
 255	0.000872813	-0.000996903	0.000565251
 256	0.000170082	-5.83594e-05	-0.000705361
 257	0.000895447	-0.00110731	-0.00150168
 258	-0.00016832	0.000916854	-0.00118938
 259	0.000160565	0.001352	-0.00163373
 260	-0.000640371	0.00152985	-0.000745871
 261	-4.29565e-06	0.000187377	-0.00115428
 262	-0.00081797	-0.000284168	1.74211e-05
 263	0.00233655	0.00354829	-4.85823e-05
 264	0.000973823	0.00180902	-0.00478053
 265	0.000229215	0.001576	-0.000884818
 266	-0.000754008	0.00236527	0.000464362
 267	-0.00155621	0.00112941	-0.00119219
 268	-0.00136065	-0.000505702	0.000658583
 269	-0.00180267	6.3154e-05	-0.000730438
 270	-0.000394314	-0.000576832	0.000753397
 271	-0.000563701	0.000971234	-0.000411514
 272	-0.000448668	0.000932962	-0.000283187
 273	1.18331e-05	0.00108164	-0.000440637
 274	-0.00024293	0.000686961	-0.000535237
 275	0.00015229	0.000726956	-6.0732e-05
 276	-0.000284849	0.00094675	-0.000435397
 277	4.24954e-05	0.000366921	-0.000199399
 278	0.000161021	0.000948669	0.000599004
 279	-0.000871317	0.000240386	-0.00047162
 280	2.91556e-05	0.000799835	2.18289e-05
 281	0.000480409	0.00025622	-0.000263367
 282	0.000219226	0.000792703	0.000548806
 283	0.00113093	0.000820737	-0.000409221
 284	-0.000499676	0.000409793	-0.000229447
 285	0.000166653	-0.000650992	0.000170563
 286	6.0518e-06	0.00149034	-0.00136387
 287	-0.000166786	0.000454958	-0.000699272
 288	6.3405e-05	0.00182587	-0.000269694
 289	-0.000189843	0.00158721	-0.000541299
 290	0.000497577	0.00176796	0.000430097
 291	-2.35528e-05	0.00118024	-0.000823604
 292	-0.000403087	0.00176083	-0.00143324
 293	-0.000459399	0.00250585	0.000181479
 294	-0.000184899	0.00100493	-0.000275892
 295	-0.000284516	0.00312237	0.00153455
 296	0.00220283	0.00202603	9.63553e-05
 297	-0.000430527	0.00118259	0.000640672
 298	-0.000257066	0.00201797	-0.00142518
 299	-0.000476825	0.00159845	-0.0014777
 300	-0.000772719	0.00205323	-0.00146548

Bonds

   1	4	1	6
   2	3	1	7
   3	5	2	6
   4	6	3	4
   5	6	3	5
   6	2	3	6
   7	1	4	8
   8	1	4	9
   9	1	5	10
  10	1	5	11
  11	1	5	12
  12	1	7	13
  13	1	7	14
  14	1	7	15
  15	4	16	21
  16	3	16	22
  17	5	17	21
  18	6	18	19
  19	6	18	20
  20	2	18	21
  21	1	19	23
  22	1	19	24
  23	1	20	25
  24	1	20	26
  25	1	20	27
  26	1	22	28
  27	1	22	29
  28	1	22	30
  29	6	3	19
  30	4	31	36
  31	3	31	37
  32	5	32	36
  33	6	33	34
  34	6	33	35
  35	2	33	36
  36	1	34	38
  37	1	34	39
  38	1	35	40
  39	1	35	41
  40	1	35	42
  41	1	37	43
  42	1	37	44
  43	1	37	45
  44	6	18	34
  45	4	46	51
  46	3	46	52
  47	5	47	51
  48	6	48	49
  49	6	48	50
  50	2	48	51
  51	1	49	53
  52	1	49	54
  53	1	50	55
  54	1	50	56
  55	1	50	57
  56	1	52	58
  57	1	52	59
  58	1	52	60
  59	6	33	49
  60	4	61	66
  61	3	61	67
  62	5	62	66
  63	6	63	64
  64	6	63	65
  65	2	63	66
  66	1	64	68
  67	1	64	69
  68	1	65	70
  69	1	65	71
  70	1	65	72
  71	1	67	73
  72	1	67	74
  73	1	67	75
  74	6	48	64
  75	4	76	81
  76	3	76	82
  77	5	77	81
  78	6	78	79
  79	6	78	80
  80	2	78	81
  81	1	79	83
  82	1	79	84
  83	1	80	85
  84	1	80	86
  85	1	80	87
  86	1	82	88
  87	1	82	89
  88	1	82	90
  89	6	63	79
  90	4	91	96
  91	3	91	97
  92	5	92	96
  93	6	93	94
  94	6	93	95
  95	2	93	96
  96	1	94	98
  97	1	94	99
  98	1	95	100
  99	1	95	101
 100	1	95	102
 101	1	97	103
 102	1	97	104
 103	1	97	105
 104	6	78	94
 105	4	106	111
 106	3	106	112
 107	5	107	111
 108	6	108	109
 109	6	108	110
 110	2	108	111
 111	1	109	113
 112	1	109	114
 113	1	110	115
 114	1	110	116
 115	1	110	117
 116	1	112	118
 117	1	112	119
 118	1	112	120
 119	6	93	109
 120	4	121	126
 121	3	121	127
 122	5	122	126
 123	6	123	124
 124	6	123	125
 125	2	123	126
 126	1	124	128
 127	1	124	129
 128	1	125	130
 129	1	125	131
 130	1	125	132
 131	1	127	133
 132	1	127	134
 133	1	127	135
 134	6	108	124
 135	4	136	141
 136	3	136	142
 137	5	137	141
 138	6	138	139
 139	6	138	140
 140	2	138	141
 141	1	139	143
 142	1	139	144
 143	1	140	145
 144	1	140	146
 145	1	140	147
 146	1	142	148
 147	1	142	149
 148	1	142	150
 149	6	123	139
 150	4	151	156
 151	3	151	157
 152	5	152	156
 153	6	153	154
 154	6	153	155
 155	2	153	156
 156	1	154	158
 157	1	154	159
 158	1	155	160
 159	1	155	161
 160	1	155	162
 161	1	157	163
 162	1	157	164
 163	1	157	165
 164	6	138	154
 165	4	166	171
 166	3	166	172
 167	5	167	171
 168	6	168	169
 169	6	168	170
 170	2	168	171
 171	1	169	173
 172	1	169	174
 173	1	170	175
 174	1	170	176
 175	1	170	177
 176	1	172	178
 177	1	172	179
 178	1	172	180
 179	6	153	169
 180	4	181	186
 181	3	181	187
 182	5	182	186
 183	6	183	184
 184	6	183	185
 185	2	183	186
 186	1	184	188
 187	1	184	189
 188	1	185	190
 189	1	185	191
 190	1	185	192
 191	1	187	193
 192	1	187	194
 193	1	187	195
 194	6	168	184
 195	4	196	201
 196	3	196	202
 197	5	197	201
 198	6	198	199
 199	6	198	200
 200	2	198	201
 201	1	199	203
 202	1	199	204
 203	1	200	205
 204	1	200	206
 205	1	200	207
 206	1	202	208
 207	1	202	209
 208	1	202	210
 209	6	183	199
 210	4	211	216
 211	3	211	217
 212	5	212	216
 213	6	213	214
 214	6	213	215
 215	2	213	216
 216	1	214	218
 217	1	214	219
 218	1	215	220
 219	1	215	221
 220	1	215	222
 221	1	217	223
 222	1	217	224
 223	1	217	225
 224	6	198	214
 225	4	226	231
 226	3	226	232
 227	5	227	231
 228	6	228	229
 229	6	228	230
 230	2	228	231
 231	1	229	233
 232	1	229	234
 233	1	230	235
 234	1	230	236
 235	1	230	237
 236	1	232	238
 237	1	232	239
 238	1	232	240
 239	6	213	229
 240	4	241	246
 241	3	241	247
 242	5	242	246
 243	6	243	244
 244	6	243	245
 245	2	243	246
 246	1	244	248
 247	1	244	249
 248	1	245	250
 249	1	245	251
 250	1	245	252
 251	1	247	253
 252	1	247	254
 253	1	247	255
 254	6	228	244
 255	4	256	261
 256	3	256	262
 257	5	257	261
 258	6	258	259
 259	6	258	260
 260	2	258	261
 261	1	259	263
 262	1	259	264
 263	1	260	265
 264	1	260	266
 265	1	260	267
 266	1	262	268
 267	1	262	269
 268	1	262	270
 269	6	243	259
 270	4	271	276
 271	3	271	277
 272	5	272	276
 273	6	273	274
 274	6	273	275
 275	2	273	276
 276	1	274	278
 277	1	274	279
 278	1	275	280
 279	1	275	281
 280	1	275	282
 281	1	277	283
 282	1	277	284
 283	1	277	285
 284	6	258	274
 285	4	286	291
 286	3	286	292
 287	5	287	291
 288	6	288	289
 289	6	288	290
 290	2	288	291
 291	1	289	293
 292	1	289	294
 293	1	290	295
 294	1	290	296
 295	1	290	297
 296	1	292	298
 297	1	292	299
 298	1	292	300
 299	6	273	289

Angles

   1	2	6	1	7
   2	1	4	3	5
   3	1	4	3	6
   4	1	5	3	6
   5	1	9	4	8
   6	1	9	4	3
   7	1	8	4	3
   8	1	3	5	10
   9	1	3	5	11
  10	1	3	5	12
  11	1	10	5	11
  12	1	10	5	12
  13	1	11	5	12
  14	3	1	6	2
  15	3	1	6	3
  16	3	2	6	3
  17	1	14	7	1
  18	1	14	7	15
  19	1	14	7	13
  20	1	1	7	15
  21	1	1	7	13
  22	1	15	7	13
  23	2	21	16	22
  24	1	19	18	20
  25	1	19	18	21
  26	1	20	18	21
  27	1	24	19	23
  28	1	24	19	18
  29	1	23	19	18
  30	1	18	20	25
  31	1	18	20	26
  32	1	18	20	27
  33	1	25	20	26
  34	1	25	20	27
  35	1	26	20	27
  36	3	16	21	17
  37	3	16	21	18
  38	3	17	21	18
  39	1	29	22	16
  40	1	29	22	30
  41	1	29	22	28
  42	1	16	22	30
  43	1	16	22	28
  44	1	30	22	28
  45	1	4	3	19
  46	1	5	3	19
  47	1	6	3	19
  48	1	3	19	24
  49	1	3	19	18
  50	1	3	19	23
  51	2	36	31	37
  52	1	34	33	35
  53	1	34	33	36
  54	1	35	33	36
  55	1	39	34	38
  56	1	39	34	33
  57	1	38	34	33
  58	1	33	35	40
  59	1	33	35	41
  60	1	33	35	42
  61	1	40	35	41
  62	1	40	35	42
  63	1	41	35	42
  64	3	31	36	32
  65	3	31	36	33
  66	3	32	36	33
  67	1	44	37	31
  68	1	44	37	45
  69	1	44	37	43
  70	1	31	37	45
  71	1	31	37	43
  72	1	45	37	43
  73	1	19	18	34
  74	1	20	18	34
  75	1	21	18	34
  76	1	18	34	33
  77	1	18	34	38
  78	1	18	34	39
  79	2	51	46	52
  80	1	49	48	50
  81	1	49	48	51
  82	1	50	48	51
  83	1	54	49	53
  84	1	54	49	48
  85	1	53	49	48
  86	1	48	50	55
  87	1	48	50	56
  88	1	48	50	57
  89	1	55	50	56
  90	1	55	50	57
  91	1	56	50	57
  92	3	46	51	47
  93	3	46	51	48
  94	3	47	51	48
  95	1	59	52	46