LAMMPS data file from Materials Studio file omim-1_aa.xsd

152 atoms
177 bonds
310 angles
520 dihedrals
116 impropers

6 atom types
7 bond types
9 angle types
15 dihedral types
7 improper types

-10.025547  10.038893 xlo xhi 
-10.032093  10.032350 ylo yhi 
 -8.143359   3.931716 zlo zhi 

Masses

  1         12.011150    # cp
  2         12.011150    # c1
  3         15.999400    # oc
  4          1.007970    # hc
  5         12.011150    # ct
  6         14.006700    # nt

Pair Coeffs

  1          0.064000    4.010000    # cp
  2          0.054000    4.010000    # c1
  3          0.240000    3.535000    # oc
  4          0.020000    2.995000    # hc
  5          0.064000    4.010000    # ct
  6          0.065000    3.570000    # nt

Bond Coeffs

  1          1.417000  470.836100 -627.624521 1327.616551    # cp,cp
  2          1.098200  372.825100 -803.438090  894.332850    # cp,hc
  3          1.501000  321.902100 -521.835494  572.148793    # cp,c1
  4          1.101000  345.000000 -691.897500  844.594500    # c1,hc
  5          1.376800  428.879800 -738.230800 1114.958816    # cp,oc
  6          1.400000  321.671600    0.000000    0.000000    # cp,ct
  7          1.158000  880.000000    0.000000    0.000000    # ct,nt

Angle Coeffs

  1        118.900000   61.022600  -34.990359    0.000000    # cp,cp,cp
  2        117.940000   35.155800  -12.469762    0.000000    # cp,cp,hc
  3        120.050000   44.714800  -22.733004    0.000000    # cp,cp,c1
  4        111.000000   44.323400   -9.445317    0.000000    # cp,c1,cp
  5        111.000000   44.323400   -9.445317    0.000000    # cp,c1,hc
  6        123.420000   73.678100  -21.676097    0.000000    # cp,cp,oc
  7        109.500000   60.000000    0.000000    0.000000    # cp,oc,cp
  8        120.000000   80.000000    0.000000    0.000000    # cp,cp,ct
  9        180.000000  200.000000    0.000000    0.000000    # cp,ct,nt

BondBond Coeffs

  1         68.285600    1.417000    1.417000    # cp,cp,cp
  2          1.079500    1.417000    1.098200    # cp,cp,hc
  3         12.067600    1.417000    1.501000    # cp,cp,c1
  4          0.000000    1.501000    1.501000    # cp,c1,cp
  5          2.916800    1.501000    1.101000    # cp,c1,hc
  6         48.475400    1.417000    1.376800    # cp,cp,oc
  7          0.000000    1.376800    1.376800    # cp,oc,cp
  8          0.000000    1.417000    1.400000    # cp,cp,ct
  9          0.000000    1.400000    1.158000    # cp,ct,nt

BondAngle Coeffs

  1         28.870800   28.870800    1.417000    1.417000    # cp,cp,cp
  2         20.003300   24.218300    1.417000    1.098200    # cp,cp,hc
  3         31.077100   47.057900    1.417000    1.501000    # cp,cp,c1
  4          0.000000    0.000000    1.501000    1.501000    # cp,c1,cp
  5         26.460800   11.771700    1.501000    1.101000    # cp,c1,hc
  6         58.479000  107.680600    1.417000    1.376800    # cp,cp,oc
  7          0.000000    0.000000    1.376800    1.376800    # cp,oc,cp
  8          0.000000    0.000000    1.417000    1.400000    # cp,cp,ct
  9          0.000000    0.000000    1.400000    1.158000    # cp,ct,nt

Dihedral Coeffs

  1          8.366700    0.000000    1.193200    0.000000    0.000000    0.000000    # cp,cp,cp,cp
  2          0.000000    0.000000    3.966100    0.000000    0.000000    0.000000    # cp,cp,cp,hc
  3          0.000000    0.000000    1.876900    0.000000    0.000000    0.000000    # hc,cp,cp,hc
  4          0.000000    0.000000    4.407200    0.000000    0.000000    0.000000    # cp,cp,cp,c1
  5          0.000000    0.000000    1.559000    0.000000    0.000000    0.000000    # hc,cp,cp,c1
  6          0.000000    0.000000    3.000000    0.000000    0.000000    0.000000    # c1,cp,cp,c1
  7         -0.280200    0.000000   -0.067800    0.000000   -0.012200    0.000000    # cp,cp,c1,cp
  8         -0.280100    0.000000   -0.067800    0.000000   -0.012200    0.000000    # cp,cp,c1,hc
  9          0.000000    0.000000    4.849800    0.000000    0.000000    0.000000    # cp,cp,cp,oc
  10         0.000000    0.000000    1.723400    0.000000    0.000000    0.000000    # hc,cp,cp,oc
  11         0.000000    0.000000    3.000000    0.000000    0.000000    0.000000    # oc,cp,cp,oc
  12         0.000000    0.000000    1.800000    0.000000    0.000000    0.000000    # cp,cp,oc,cp
  13         0.000000    0.000000    3.000000    0.000000    0.000000    0.000000    # oc,cp,cp,ct
  14         0.000000    0.000000    3.000000    0.000000    0.000000    0.000000    # cp,cp,cp,ct
  15         0.000000    0.000000    0.000000    0.000000    0.000000    0.000000    # cp,cp,ct,nt

MiddleBondTorsion Coeffs

  1         27.598900   -2.312000    0.000000    1.417000    # cp,cp,cp,cp
  2          0.000000   -1.152100    0.000000    1.417000    # cp,cp,cp,hc
  3          0.000000    4.822800    0.000000    1.417000    # hc,cp,cp,hc
  4          0.000000    9.179200    0.000000    1.417000    # cp,cp,cp,c1
  5          0.000000    3.942100    0.000000    1.417000    # hc,cp,cp,c1
  6          0.000000    0.000000    0.000000    1.417000    # c1,cp,cp,c1
  7          0.000000    0.000000    0.000000    1.501000    # cp,cp,c1,cp
  8         -5.567900    1.408300    0.301000    1.501000    # cp,cp,c1,hc
  9          0.000000    4.825500    0.000000    1.417000    # cp,cp,cp,oc
  10         0.000000    5.543200    0.000000    1.417000    # hc,cp,cp,oc
  11         0.000000    0.000000    0.000000    1.417000    # oc,cp,cp,oc
  12         0.000000    0.000000    0.000000    1.376800    # cp,cp,oc,cp
  13         0.000000    0.000000    0.000000    1.417000    # oc,cp,cp,ct
  14         0.000000    0.000000    0.000000    1.417000    # cp,cp,cp,ct
  15         0.000000    0.000000    0.000000    1.400000    # cp,cp,ct,nt

EndBondTorsion Coeffs

  1         -0.118500    6.320400    0.000000   -0.118500    6.320400    0.000000    1.417000    1.417000    # cp,cp,cp,cp
  2          0.000000   -6.895800    0.000000    0.000000   -0.466900    0.000000    1.417000    1.098200    # cp,cp,cp,hc
  3          0.000000   -0.689000    0.000000    0.000000   -0.689000    0.000000    1.098200    1.098200    # hc,cp,cp,hc
  4          0.000000   -0.691800    0.000000    0.000000    0.242100    0.000000    1.417000    1.501000    # cp,cp,cp,c1
  5          0.000000   -0.487900    0.000000    0.000000   -1.797000    0.000000    1.098200    1.501000    # hc,cp,cp,c1
  6          0.000000    0.000000    0.000000    0.000000    0.000000    0.000000    1.501000    1.501000    # c1,cp,cp,c1
  7          0.000000    0.000000    0.000000    0.000000    0.000000    0.000000    1.417000    1.501000    # cp,cp,c1,cp
  8         -0.583500    1.122000    0.397800    1.399700    0.775600    0.000000    1.417000    1.101000    # cp,cp,c1,hc
  9          0.000000    0.265500    0.000000    0.000000    4.890500    0.000000    1.417000    1.376800    # cp,cp,cp,oc
  10         0.000000   -1.586700    0.000000    0.000000    4.264100    0.000000    1.098200    1.376800    # hc,cp,cp,oc
  11         0.000000    0.000000    0.000000    0.000000    0.000000    0.000000    1.376800    1.376800    # oc,cp,cp,oc
  12         0.000000    0.000000    0.000000    0.000000    0.000000    0.000000    1.417000    1.376800    # cp,cp,oc,cp
  13         0.000000    0.000000    0.000000    0.000000    0.000000    0.000000    1.376800    1.400000    # oc,cp,cp,ct
  14         0.000000    0.000000    0.000000    0.000000    0.000000    0.000000    1.417000    1.400000    # cp,cp,cp,ct
  15         0.000000    0.000000    0.000000    0.000000    0.000000    0.000000    1.417000    1.158000    # cp,cp,ct,nt

AngleTorsion Coeffs

  1          1.976700    1.023900    0.000000    1.976700    1.023900    0.000000  118.900000  118.900000    # cp,cp,cp,cp
  2          0.000000    2.501400    0.000000    0.000000    2.714700    0.000000  118.900000  117.940000    # cp,cp,cp,hc
  3          0.000000    2.450100    0.000000    0.000000    2.450100    0.000000  117.940000  117.940000    # hc,cp,cp,hc
  4          0.000000    3.898700    0.000000    0.000000   -4.468300    0.000000  118.900000  120.050000    # cp,cp,cp,c1
  5          0.000000    3.460100    0.000000    0.000000   -0.124200    0.000000  117.940000  120.050000    # hc,cp,cp,c1
  6          0.000000    0.000000    0.000000    0.000000    0.000000    0.000000  120.050000  120.050000    # c1,cp,cp,c1
  7          0.000000    0.000000    0.000000    0.000000    0.000000    0.000000  120.050000  111.000000    # cp,cp,c1,cp
  8          0.225100    0.654800    0.123700    4.626600    0.163200    0.046100  120.050000  111.000000    # cp,cp,c1,hc
  9          0.000000   10.015500    0.000000    0.000000    1.740400    0.000000  118.900000  123.420000    # cp,cp,cp,oc
  10         0.000000    1.872900    0.000000    0.000000    2.570600    0.000000  117.940000  123.420000    # hc,cp,cp,oc
  11         0.000000    0.000000    0.000000    0.000000    0.000000    0.000000  123.420000  123.420000    # oc,cp,cp,oc
  12         0.000000    0.000000    0.000000    0.000000    0.000000    0.000000  123.420000  109.500000    # cp,cp,oc,cp
  13         0.000000    0.000000    0.000000    0.000000    0.000000    0.000000  123.420000  120.000000    # oc,cp,cp,ct
  14         0.000000    0.000000    0.000000    0.000000    0.000000    0.000000  118.900000  120.000000    # cp,cp,cp,ct
  15         0.000000    0.000000    0.000000    0.000000    0.000000    0.000000  120.000000  180.000000    # cp,cp,ct,nt

AngleAngleTorsion Coeffs

  1          0.000000  118.900000  118.900000    # cp,cp,cp,cp
  2         -4.814100  118.900000  117.940000    # cp,cp,cp,hc
  3          0.359800  117.940000  117.940000    # hc,cp,cp,hc
  4        -14.409700  118.900000  120.050000    # cp,cp,cp,c1
  5          4.444400  117.940000  120.050000    # hc,cp,cp,c1
  6          0.000000  120.050000  120.050000    # c1,cp,cp,c1
  7          0.000000  120.050000  111.000000    # cp,cp,c1,cp
  8         -5.888800  120.050000  111.000000    # cp,cp,c1,hc
  9        -21.024700  118.900000  123.420000    # cp,cp,cp,oc
  10         4.229600  117.940000  123.420000    # hc,cp,cp,oc
  11         0.000000  123.420000  123.420000    # oc,cp,cp,oc
  12         0.000000  123.420000  109.500000    # cp,cp,oc,cp
  13         0.000000  123.420000  120.000000    # oc,cp,cp,ct
  14         0.000000  118.900000  120.000000    # cp,cp,cp,ct
  15         0.000000  120.000000  180.000000    # cp,cp,ct,nt

BondBond13 Coeffs

  1         53.000000    1.417000    1.417000    # cp,cp,cp,cp
  2         -6.274100    1.417000    1.098200    # cp,cp,cp,hc
  3         -1.707700    1.098200    1.098200    # hc,cp,cp,hc
  4          2.508500    1.417000    1.501000    # cp,cp,cp,c1
  5          0.874300    1.098200    1.501000    # hc,cp,cp,c1
  6          0.000000    1.501000    1.501000    # c1,cp,cp,c1
  7          0.000000    1.417000    1.501000    # cp,cp,c1,cp
  8         -3.482600    1.417000    1.101000    # cp,cp,c1,hc
  9         -2.243600    1.417000    1.376800    # cp,cp,cp,oc
  10         2.051700    1.098200    1.376800    # hc,cp,cp,oc
  11         0.000000    1.376800    1.376800    # oc,cp,cp,oc
  12         0.000000    1.417000    1.376800    # cp,cp,oc,cp
  13         0.000000    1.376800    1.400000    # oc,cp,cp,ct
  14         0.000000    1.417000    1.400000    # cp,cp,cp,ct
  15         0.000000    1.417000    1.158000    # cp,cp,ct,nt

Improper Coeffs

  1          4.891200    0.000000    # cp,cp,cp,hc
  2          7.815300    0.000000    # cp,cp,cp,c1
  3          0.000000    0.000000    # cp,c1,cp,cp
  4          0.000000    0.000000    # cp,c1,cp,hc
  5         13.042100    0.000000    # cp,cp,cp,oc
  6          7.179400    0.000000    # cp,cp,cp,cp
  7         10.000000    0.000000    # cp,cp,cp,ct

AngleAngle Coeffs

  1          0.000000    0.000000    0.000000  118.900000  117.940000  117.940000    # cp,cp,cp,hc
  2          0.000000    0.000000    0.000000  118.900000  120.050000  120.050000    # cp,cp,cp,c1
  3          0.000000    0.000000    0.000000  111.000000  111.000000  111.000000    # cp,c1,cp,cp
  4          0.000000    0.000000    0.000000  111.000000  111.000000  111.000000    # cp,c1,cp,hc
  5          0.000000    0.000000    0.000000  118.900000  123.420000  123.420000    # cp,cp,cp,oc
  6          0.000000    0.000000    0.000000  118.900000  118.900000  118.900000    # cp,cp,cp,cp
  7          0.000000    0.000000    0.000000  118.900000  120.000000  120.000000    # cp,cp,cp,ct

Atoms

  1       1    1     -0.167756     -9.476055     -3.187766     -0.666528
  2       1    1     -0.148705     -8.803419     -2.187107     -1.367175
  3       1    1      0.004811     -8.129003     -1.192257     -0.679353
  4       1    1      0.003196     -8.118353     -1.193310      0.724062
  5       1    1     -0.147784     -8.777508     -2.190848      1.423091
  6       1    1     -0.165366     -9.462312     -3.191237      0.734072
  7       1    2      0.023050     -7.411294      0.000123     -1.295066
  8       1    2      0.022919     -7.395297      0.000101      1.331676
  9       1    1      0.010670     -6.010544      0.000059     -0.688309
  10      1    1      0.016358     -6.002820      0.000083      0.710271
  11      1    1      0.003196     -8.118303      1.193555      0.724093
  12      1    1      0.004811     -8.128931      1.192541     -0.679325
  13      1    1     -0.147784     -8.777480      2.191065      1.423143
  14      1    1     -0.165366     -9.462289      3.191466      0.734145
  15      1    1     -0.167756     -9.475994      3.188046     -0.666455
  16      1    1     -0.148705     -8.803326      2.187422     -1.367122
  17      1    1     -0.268300     -4.818313      0.000002     -1.379018
  18      1    1      0.146025     -3.598836      0.000033     -0.706284
  19      1    1      0.192689     -3.591411      0.000097      0.706956
  20      1    1     -0.280282     -4.804393      0.000112      1.389943
  21      1    3     -0.200661     -2.407406      0.000137      1.428627
  22      1    3     -0.204079     -2.422370      0.000020     -1.438628
  23      1    4      0.126654     -8.814448     -2.180534     -2.466117
  24      1    4      0.128196     -8.754594     -2.181648      2.521818
  25      1    4      0.128196     -8.754630      2.181808      2.521871
  26      1    4      0.126654     -8.814362      2.180881     -2.466063
  27      1    4      0.165751     -4.838569     -0.000056     -2.479812
  28      1    4      0.175883     -4.810815      0.000178      2.490865
  29      1    4      0.149278    -10.025547     -3.968424     -1.214126
  30      1    4      0.149256    -10.002550     -3.975492      1.286525
  31      1    4      0.149256    -10.002599      3.975667      1.286606
  32      1    4      0.149278    -10.025537      3.968675     -1.214041
  33      1    4      0.102141     -7.427012      0.000128     -2.386482
  34      1    4      0.104379     -7.399447      0.000078      2.423154
  35      1    1      0.089862      1.252450      0.000061     -0.700785
  36      1    1      0.064843      0.006757      0.000043     -1.407493
  37      1    1      0.089862     -1.239645      0.000053     -0.702035
  38      1    1      0.109120     -1.218065      0.000105      0.681219
  39      1    1     -0.090177      0.005361      0.000126      1.363760
  40      1    1      0.109120      1.229479      0.000109      0.682441
  41      1    5      0.332386      0.004654      0.000154      2.773796
  42      1    6     -0.445222      0.004110      0.000879      3.931716
  43      1    1     -0.165366      9.473733     -3.191160      0.743812
  44      1    1     -0.147784      8.788217     -2.190768      1.432120
  45      1    1      0.003196      8.129703     -1.193286      0.732405
  46      1    1      0.004811      8.141752     -1.192277     -0.671000
  47      1    1     -0.148705      8.816806     -2.187179     -1.358119
  48      1    1     -0.167756      9.488788     -3.187785     -0.656774
  49      1    2      0.022919      7.405998      0.000117      1.339256
  50      1    2      0.023050      7.424703      0.000109     -1.287473
  51      1    1      0.016358      6.014173      0.000096      0.716395
  52      1    1      0.010670      6.023335      0.000061     -0.682174
  53      1    1      0.004811      8.141696      1.192534     -0.670992
  54      1    1      0.003196      8.129635      1.193557      0.732413
  55      1    1     -0.148705      8.816794      2.187408     -1.358107
  56      1    1     -0.167756      9.488771      3.188015     -0.656759
  57      1    1     -0.165366      9.473656      3.191433      0.743828
  58      1    1     -0.147784      8.788131      2.191048      1.432134
  59      1    1     -0.280282      4.815051      0.000128      1.394830
  60      1    1      0.192689      3.602778      0.000109      0.710594
  61      1    1      0.146025      3.611649      0.000046     -0.702640
  62      1    1     -0.268300      4.831820      0.000007     -1.374119
  63      1    3     -0.204079      2.435925      0.000034     -1.436178
  64      1    3     -0.200661      2.418045      0.000144      1.431058
  65      1    4      0.128196      8.764236     -2.181512      2.530823
  66      1    4      0.126654      8.828853     -2.180703     -2.457050
  67      1    4      0.126654      8.828936      2.180866     -2.457035
  68      1    4      0.128196      8.764180      2.181770      2.530839
  69      1    4      0.175883      4.820345      0.000190      2.495758
  70      1    4      0.165751      4.853245     -0.000069     -2.474892
  71      1    4      0.149256     10.013506     -3.975350      1.296812
  72      1    4      0.149278     10.038808     -3.968465     -1.203810
  73      1    4      0.149278     10.038893      3.968622     -1.203796
  74      1    4      0.149256     10.013430      3.975621      1.296830
  75      1    4      0.104379      7.408973      0.000111      2.430738
  76      1    4      0.102141      7.441574      0.000117     -2.378871
  77      1    1     -0.167756     -3.179998     -9.482345     -3.551660
  78      1    1     -0.148705     -2.179738     -8.810048     -2.850128
  79      1    1      0.004811     -1.184474     -8.135351     -3.537067
  80      1    1      0.003196     -1.184696     -8.124051     -4.940478
  81      1    1     -0.147784     -2.181838     -8.782877     -5.640389
  82      1    1     -0.165366     -3.182642     -9.467974     -4.952256
  83      1    2      0.023050      0.007553     -7.417985     -2.920290
  84      1    2      0.022919      0.009100     -7.400726     -5.547024
  85      1    1      0.010670      0.007890     -6.016951     -3.526364
  86      1    1      0.016358      0.008714     -6.008542     -4.924936
  87      1    1      0.003196      1.202179     -8.124062     -4.939068
  88      1    1      0.004811      1.200314     -8.135345     -3.535657
  89      1    1     -0.147784      2.200120     -8.782933     -5.637799
  90      1    1     -0.165366      3.200106     -9.468041     -4.948488
  91      1    1     -0.167756      3.195854     -9.482347     -3.547897
  92      1    1     -0.148705      2.194783     -8.810024     -2.847547
  93      1    1     -0.268300      0.007450     -4.825069     -2.835054
  94      1    1      0.146025      0.007841     -3.605251     -3.507169
  95      1    1      0.192689      0.008678     -3.597123     -4.920406
  96      1    1     -0.280282      0.009082     -4.809769     -5.604004
  97      1    3     -0.200661      0.009113     -2.412745     -5.641474
  98      1    3     -0.204079      0.007406     -2.429141     -2.774239
  99      1    4      0.126654     -2.173778     -8.821592     -1.751189
  100     1    4      0.128196     -2.171992     -8.759491     -6.739101
  101     1    4      0.128196      2.191559     -8.759568     -6.736521
  102     1    4      0.126654      2.187568     -8.821531     -1.748615
  103     1    4      0.165751      0.006792     -4.845921     -1.734272
  104     1    4      0.175883      0.009710     -4.815664     -6.704929
  105     1    4      0.149278     -3.960959    -10.032093     -3.004752
  106     1    4      0.149256     -3.966570    -10.007985     -5.505396
  107     1    4      0.149256      3.984654    -10.008106     -5.500697
  108     1    4      0.149278      3.976205    -10.032047     -3.000070
  109     1    4      0.102141      0.006903     -7.434243     -1.828882
  110     1    4      0.104379      0.009738     -7.404320     -6.638504
  111     1    1      0.089862      0.007837      1.246088     -3.510257
  112     1    1      0.064843      0.007464      0.000034     -2.804162
  113     1    1      0.089862      0.007850     -1.246033     -3.510233
  114     1    1      0.109120      0.008680     -1.223781     -4.893465
  115     1    1     -0.090177      0.009123      0.000002     -5.575406
  116     1    1      0.109120      0.008674      1.223780     -4.893499
  117     1    5      0.332386      0.010069     -0.000057     -6.985442
  118     1    6     -0.445222      0.010835      0.000600     -8.143359
  119     1    1     -0.165366     -3.182629      9.468015     -4.952752
  120     1    1     -0.147784     -2.181794      8.782881     -5.640801
  121     1    1      0.003196     -1.184677      8.124096     -4.940815
  122     1    1      0.004811     -1.184486      8.135483     -3.537405
  123     1    1     -0.148705     -2.179774      8.810238     -2.850549
  124     1    1     -0.167756     -3.180013      9.482491     -3.552159
  125     1    2      0.022919      0.009119      7.400719     -5.547299
  126     1    2      0.023050      0.007545      7.418144     -2.920576
  127     1    1      0.016358      0.008737      6.008564     -4.925133
  128     1    1      0.010670      0.007899      6.017047     -3.526558
  129     1    1      0.004811      1.200309      8.135493     -3.535978
  130     1    1      0.003196      1.202192      8.124086     -4.939386
  131     1    1     -0.148705      2.194749      8.810286     -2.847934
  132     1    1     -0.167756      3.195833      9.482531     -3.548348
  133     1    1     -0.165366      3.200148      9.468018     -4.948937
  134     1    1     -0.147784      2.200149      8.782863     -5.638179
  135     1    1     -0.280282      0.009118      4.809754     -5.604137
  136     1    1      0.192689      0.008688      3.597138     -4.920492
  137     1    1      0.146025      0.007836      3.605322     -3.507258
  138     1    1     -0.268300      0.007455      4.825181     -2.835199
  139     1    3     -0.204079      0.007379      2.429223     -2.774294
  140     1    3     -0.200661      0.009107      2.412739     -5.641526
  141     1    4      0.128196     -2.171902      8.759434     -6.739511
  142     1    4      0.126654     -2.173888      8.821844     -1.751610
  143     1    4      0.126654      2.187508      8.821942     -1.749003
  144     1    4      0.128196      2.191579      8.759393     -6.736900
  145     1    4      0.175883      0.009769      4.815563     -6.705062
  146     1    4      0.165751      0.006788      4.846069     -1.734417
  147     1    4      0.149256     -3.966569     10.007944     -5.505956
  148     1    4      0.149278     -3.960988     10.032286     -3.005317
  149     1    4      0.149278      3.976139     10.032350     -3.000577
  150     1    4      0.149256      3.984747     10.007946     -5.501207
  151     1    4      0.104379      0.009772      7.404283     -6.638779
  152     1    4      0.102141      0.006897      7.434489     -1.829169

Bonds

  1       1    1       2      
  2       1    1       6      
  3       2    1       29     
  4       1    2       3      
  5       2    2       23     
  6       1    3       4      
  7       3    3       7      
  8       1    4       5      
  9       3    4       8      
  10      1    5       6      
  11      2    5       24     
  12      2    6       30     
  13      3    9       7      
  14      3    12      7      
  15      4    7       33     
  16      3    10      8      
  17      3    11      8      
  18      4    8       34     
  19      1    9       10     
  20      1    9       17     
  21      1    10      20     
  22      1    11      12     
  23      1    11      13     
  24      1    12      16     
  25      1    13      14     
  26      2    13      25     
  27      1    14      15     
  28      2    14      31     
  29      1    15      16     
  30      2    15      32     
  31      2    16      26     
  32      1    17      18     
  33      2    17      27     
  34      1    18      19     
  35      5    18      22     
  36      1    19      20     
  37      5    19      21     
  38      2    20      28     
  39      5    38      21     
  40      5    37      22     
  41      1    35      36     
  42      1    35      40     
  43      5    35      63     
  44      1    36      37     
  45      1    37      38     
  46      1    38      39     
  47      1    39      40     
  48      6    39      41     
  49      5    40      64     
  50      7    41      42     
  51      1    43      44     
  52      1    43      48     
  53      2    43      71     
  54      1    44      45     
  55      2    44      65     
  56      1    45      46     
  57      3    45      49     
  58      1    46      47     
  59      3    46      50     
  60      1    47      48     
  61      2    47      66     
  62      2    48      72     
  63      3    51      49     
  64      3    54      49     
  65      4    49      75     
  66      3    52      50     
  67      3    53      50     
  68      4    50      76     
  69      1    51      52     
  70      1    51      59     
  71      1    52      62     
  72      1    53      54     
  73      1    53      55     
  74      1    54      58     
  75      1    55      56     
  76      2    55      67     
  77      1    56      57     
  78      2    56      73     
  79      1    57      58     
  80      2    57      74     
  81      2    58      68     
  82      1    59      60     
  83      2    59      69     
  84      1    60      61     
  85      5    60      64     
  86      1    61      62     
  87      5    61      63     
  88      2    62      70     
  89      1    77      78     
  90      1    77      82     
  91      2    77      105    
  92      1    78      79     
  93      2    78      99     
  94      1    79      80     
  95      3    79      83     
  96      1    80      81     
  97      3    80      84     
  98      1    81      82     
  99      2    81      100    
  100     2    82      106    
  101     3    85      83     
  102     3    88      83     
  103     4    83      109    
  104     3    86      84     
  105     3    87      84     
  106     4    84      110    
  107     1    85      86     
  108     1    85      93     
  109     1    86      96     
  110     1    87      88     
  111     1    87      89     
  112     1    88      92     
  113     1    89      90     
  114     2    89      101    
  115     1    90      91     
  116     2    90      107    
  117     1    91      92     
  118     2    91      108    
  119     2    92      102    
  120     1    93      94     
  121     2    93      103    
  122     1    94      95     
  123     5    94      98     
  124     1    95      96     
  125     5    95      97     
  126     2    96      104    
  127     5    114     97     
  128     5    113     98     
  129     1    111     112    
  130     1    111     116    
  131     5    111     139    
  132     1    112     113    
  133     1    113     114    
  134     1    114     115    
  135     1    115     116    
  136     6    115     117    
  137     5    116     140    
  138     7    117     118    
  139     1    119     120    
  140     1    119     124    
  141     2    119     147    
  142     1    120     121    
  143     2    120     141    
  144     1    121     122    
  145     3    121     125    
  146     1    122     123    
  147     3    122     126    
  148     1    123     124    
  149     2    123     142    
  150     2    124     148    
  151     3    127     125    
  152     3    130     125    
  153     4    125     151    
  154     3    128     126    
  155     3    129     126    
  156     4    126     152    
  157     1    127     128    
  158     1    127     135    
  159     1    128     138    
  160     1    129     130    
  161     1    129     131    
  162     1    130     134    
  163     1    131     132    
  164     2    131     143    
  165     1    132     133    
  166     2    132     149    
  167     1    133     134    
  168     2    133     150    
  169     2    134     144    
  170     1    135     136    
  171     2    135     145    
  172     1    136     137    
  173     5    136     140    
  174     1    137     138    
  175     5    137     139    
  176     2    138     146    
  177     1    112     36     

Angles

  1       1    2       1       6      
  2       2    2       1       29     
  3       2    6       1       29     
  4       1    1       2       3      
  5       2    1       2       23     
  6       2    3       2       23     
  7       1    2       3       4      
  8       3    2       3       7      
  9       3    4       3       7      
  10      1    3       4       5      
  11      3    3       4       8      
  12      3    5       4       8      
  13      1    4       5       6      
  14      2    4       5       24     
  15      2    6       5       24     
  16      1    1       6       5      
  17      2    1       6       30     
  18      2    5       6       30     
  19      4    3       7       9      
  20      4    3       7       12     
  21      5    3       7       33     