ITEM: TIMESTEP
5000
ITEM: NUMBER OF ATOMS
300
ITEM: BOX BOUNDS pp pp pp
-1.1149221000000001e+01 1.1149221000000001e+01
-1.1149221000000001e+01 1.1149221000000001e+01
-1.1149221000000001e+01 1.1149221000000001e+01
ITEM: ATOMS id type x y z vx vy vz 
164 1 -5.87833 -9.22647 -3.18362 -0.00713125 -0.00249213 0.00962162 
165 1 -4.49565 -8.39476 -3.95475 0.00508999 -0.0114881 0.00163879 
163 1 -5.67364 -7.51497 -2.94358 0.0167297 -0.00168127 -0.00515714 
157 5 -5.12558 -8.444 -3.06019 0.00308517 -0.00722607 0.00198028 
192 1 -0.811406 -3.27123 -2.65846 -0.00206376 0.013799 0.0146291 
252 1 2.22843 -5.49781 -3.21717 -0.00675462 -0.00941439 -0.0151442 
248 1 3.19701 -2.79506 -3.18593 -0.00472549 -0.0203207 0.00434554 
245 5 3.22582 -5.77877 -3.53576 0.000670263 0.003408 0.00648523 
250 1 3.80043 -5.98144 -2.64272 -0.0128472 -0.00153779 0.0145973 
251 1 3.25997 -6.68252 -4.1399 -0.0207647 0.00449295 -0.00874406 
259 5 2.89624 -4.05627 -5.38539 0.00900644 -0.000587798 -0.00084466 
263 1 1.91961 -3.96732 -4.89373 0.0107411 0.00220799 -0.00080265 
167 4 -4.93546 -3.37397 -0.666791 0.00341187 0.00341829 0.0062579 
175 1 -2.99361 -3.7734 -2.61786 -0.0151974 0.00781438 0.00999994 
176 1 -3.77468 -5.25177 -2.32219 -0.0274948 0.0193379 0.0281635 
265 1 1.26522 -6.16818 -5.93571 0.00669086 0.0084725 0.00895575 
266 1 2.82332 -6.84556 -6.32215 0.00964387 -0.000731995 -0.0104076 
283 1 -1.36671 -7.59149 -7.70096 -0.0111296 -0.0127136 0.00735597 
260 5 2.05237 -6.15666 -6.68235 0.00173832 0.00286581 -0.00164614 
267 1 1.7064 -6.56699 -7.62121 -0.0132869 -0.00532725 0.01654 
242 4 5.78262 -4.24617 -5.47724 0.00539001 -0.00278274 0.00182467 
227 4 6.42255 -4.96959 -2.12069 -0.00393465 0.00235483 -0.0064421 
244 5 4.14399 -3.33951 -3.26547 0.000879415 -0.00234722 0.000913372 
239 1 8.35329 -3.20763 -2.91407 -0.0115233 0.0119048 0.0171826 
241 2 5.87113 -6.09123 -4.33062 0.011958 0.0032389 0.00452325 
246 3 5.20054 -5.02619 -4.75683 0.00421972 0.00367294 0.00331564 
247 5 6.62748 -6.81779 -5.33342 0.00310815 -0.000690504 0.00989121 
255 1 5.9736 -7.54111 -5.83138 -0.0041761 0.00240988 0.013535 
243 5 3.90685 -4.60046 -4.23609 0.00540249 -0.00285718 -0.000750003 
253 1 7.37433 -7.44374 -4.83432 0.00871266 -0.000212981 -0.00498363 
254 1 7.10909 -6.23467 -6.11903 -0.00254074 0.00055926 0.00552778 
17 4 -10.8704 2.84045 7.26903 -0.00243165 -0.0018679 -0.00915536 
21 3 10.9708 2.48466 8.34122 -0.000666653 -0.00117853 -0.00749402 
16 2 -10.8757 1.33308 8.77126 -0.00443491 0.00567975 -0.00782112 
28 1 -8.84005 2.09008 8.74784 0.0051717 -0.0151726 0.00262506 
29 1 -9.13245 0.363945 8.31529 0.00459386 -0.0137731 0.00442866 
22 5 -9.44451 1.19914 8.95845 -0.00748517 -0.00461109 -0.00960457 
264 1 3.15724 -3.01464 -5.57828 0.00601126 -0.00157626 0.000485695 
193 1 -4.15233 -0.207823 -2.48409 0.00959799 0.00692892 0.00848108 
212 4 2.43316 -0.0747934 -3.23795 -0.00734863 -0.00123229 0.00827357 
296 1 -1.785 -0.46405 -9.82983 0.00948869 0.00193844 0.0058184 
293 1 0.0185036 -1.91357 -8.43849 -0.00510049 -0.0120957 0.0115193 
289 5 -0.381224 -2.84733 -8.84798 -0.0108917 -0.00300414 1.08103e-06 
294 1 -1.16507 -3.02715 -8.10464 0.000624543 -0.00346147 0.00907057 
275 5 1.66633 -3.7088 -10.041 -0.00931868 -0.010347 -0.000112263 
278 1 1.94737 -2.81726 -7.51726 0.0242347 -0.00132822 -0.0269277 
258 5 2.66439 -4.73075 -6.83188 0.00134719 0.00428963 0.000127224 
273 5 0.687474 -3.98684 -8.81195 -0.00307936 0.00160259 0.00379555 
274 5 1.47759 -3.81483 -7.44991 -0.000550915 0.00999999 -0.00544998 
187 5 -3.21078 -0.368372 -3.0172 0.00612614 0.006523 0.00329453 
194 1 -3.45735 -0.655087 -4.03782 -0.00210689 0.024045 0.00105816 
195 1 -2.62342 0.55385 -3.023 0.00210375 0.0046851 0.0181218 
271 2 -0.767746 -5.61904 -7.70425 -0.00181443 -0.0111976 0.00637585 
277 5 -1.81671 -6.59769 -7.74836 -0.00181963 -0.00791168 0.00191799 
279 1 0.704661 -3.70948 -6.67715 0.0155778 0.0283241 0.00268051 
285 1 -2.43728 -6.451 -6.86393 -0.00375946 -0.00545067 0.000789584 
276 3 -0.149845 -5.22916 -8.86087 0.00332354 -0.000386963 0.011028 
249 1 4.74685 -2.669 -3.87562 -0.00351164 0.00858596 -0.00447442 
224 1 5.39161 1.78468 -4.64602 0.00743333 -0.00154487 -0.00296477 
257 4 4.58175 -3.75956 -7.89866 -0.00123307 -0.0115599 0.00332279 
268 1 6.00305 -7.04574 -8.9952 -0.0144417 -0.0133509 -0.00428992 
281 1 2.32751 -2.84274 -9.86518 -0.0144886 -0.00755498 -0.00742669 
7 5 7.60319 -0.673149 -9.41884 0.00617761 -0.00482618 0.00127443 
14 1 7.79258 -1.59507 -9.96897 0.0156872 0.00535817 -0.0163505 
15 1 6.59514 -0.70852 -9.0096 0.0108272 -0.0274784 0.00772724 
1 2 7.77479 0.546014 -10.2049 0.00345946 -0.000716923 0.00509169 
6 3 7.5338 0.464228 10.7627 -0.00164213 0.00562709 0.0046476 
13 1 8.28707 -0.654426 -8.575 0.00944562 -0.0161258 -0.00309712 
9 1 9.50653 -1.32807 9.80188 -0.0220243 -0.00531737 -0.00511175 
270 1 5.04759 -5.97426 -10.0583 0.00540257 0.00127465 -0.00422596 
256 2 4.46754 -5.99091 -8.07478 -0.00307466 0.000502729 3.67991e-05 
261 3 3.94067 -4.7968 -7.67247 -0.0053833 -0.00656928 0.00244157 
262 5 5.51525 -6.0731 -9.07694 -0.00327955 -0.00711973 0.000551609 
269 1 6.2732 -5.29602 -8.97059 0.000315079 -0.0120823 0.00327048 
19 5 9.14692 2.2367 10.0939 0.00937478 -0.00628103 -0.00378467 
24 1 9.68616 2.20731 11.0741 0.00716878 -0.013109 0.00660724 
2 4 6.37697 0.401201 10.3075 -0.00593019 -0.000756887 0.000535444 
3 5 8.67003 0.731469 9.82616 5.24381e-05 0.00589213 -0.00968131 
4 5 9.7699 -0.298668 10.1771 -0.00112438 -0.0033327 -0.0166563 
8 1 10.1315 -0.198771 -11.11 -0.0175847 -0.00837294 -0.0154813 
30 1 -9.27604 0.912089 9.9926 -0.0272318 -0.0115666 -0.00850449 
59 1 4.53515 8.70916 -10.7191 -0.00604643 0.00266945 -0.00999051 
57 1 10.3285 9.13774 11.0194 0.00867232 0.0143653 -0.00866296 
32 4 -10.412 7.24649 -10.7854 0.00462486 -0.00303715 -0.00602169 
45 1 -7.59205 5.06705 -10.0564 0.00792218 0.0121398 -0.00261064 
52 5 5.62569 8.89555 -10.715 -0.00338504 -0.000225195 -0.0029514 
60 1 5.89142 9.87592 -11.1216 -0.000280465 -0.0144314 -0.0379075 
38 1 -10.9138 4.8459 9.14813 -0.0127444 0.00540242 0.00240711 
50 5 9.36607 8.7328 -10.8838 0.00606596 -2.8726e-05 -0.00262153 
56 1 8.80034 9.63318 -10.5933 -0.00471773 -0.000200176 0.00605177 
55 1 9.59092 8.17471 -9.97874 0.0124013 0.0233026 0.00585612 
31 2 -9.57219 5.20862 -10.6629 0.00148842 -0.000625084 -0.0133076 
36 3 -10.5758 6.04858 -10.9988 0.00317443 0.000673738 -0.0106419 
37 5 -8.23659 5.78332 -10.5763 0.00293251 0.0014926 -0.00608055 
44 1 -7.799 5.9372 10.7234 -0.0049584 0.00938823 -0.00666557 
54 1 10.3013 7.01113 9.1685 -0.0118023 -0.0222138 -0.0156465 
18 5 9.91777 3.22845 9.07849 0.00012643 -0.00196297 -0.0108692 
34 5 10.7827 4.30795 9.90641 -0.00314898 -0.00965717 -0.00301178 
33 5 10.393 5.50496 10.8433 0.0021922 0.00146694 0.000347271 
35 5 9.74917 4.99387 -10.1148 0.00826099 -0.00290767 -0.0108992 
41 1 10.4616 4.29119 -9.64777 0.00682772 0.00494379 -0.00227184 
42 1 8.85431 4.44965 -10.3545 0.00838419 -0.0129539 -0.0230881 
53 1 8.91386 6.03497 9.49918 0.0320571 -0.00251795 -0.0187112 
23 1 8.21739 2.74008 10.3371 0.0184958 0.00125941 -0.00230505 
40 1 9.60838 5.78396 -9.38201 -0.0183956 0.00813005 -0.019384 
47 4 7.26266 6.31516 -10.8176 0.00387048 -0.00379075 -0.0124629 
48 5 8.64456 7.87091 10.3387 0.00680479 -0.00270192 -0.000298961 
49 5 9.64559 6.64171 9.97753 -0.00605355 -0.00846258 -0.0067626 
51 3 7.41819 7.41294 10.977 0.00175266 -0.00461587 -0.0127222 
46 2 6.20274 7.93099 10.6865 -0.00483168 0.00648422 -0.00231564 
39 1 -10.8569 3.65162 10.4585 -4.28706e-05 -0.0243416 -0.00633054 
43 1 -8.19763 6.70112 -9.99047 -0.0138506 -0.00209542 -0.0068658 
58 1 6.02239 8.81147 -9.6945 -0.000559585 0.00198062 -0.0144974 
151 2 -4.34084 -8.74411 -1.9187 0.00310854 -0.00221466 0.000839719 
155 5 -5.06367 -6.77402 0.176371 0.00221487 0.00173917 -0.00975568 
160 1 -5.6893 -7.67235 0.322188 0.000704077 0.000734956 -0.00569213 
161 1 -5.51041 -6.19298 -0.63502 0.00278663 0.00725217 -0.00249593 
162 1 -5.11173 -6.11315 1.03865 -0.00565227 0.00394742 -0.00940964 
172 5 -4.88567 -2.60084 1.91986 0.0066937 -0.000847004 0.00876792 
178 1 -5.54392 -2.07305 1.21831 0.0105344 0.00321157 0.00952296 
158 1 -3.97353 -9.10672 0.788399 -0.00719692 -0.00827283 -0.00209664 
166 2 -4.26011 -3.76711 1.41463 0.00543317 0.00294059 0.0137492 
146 1 -1.44484 -9.34472 -0.763587 -0.00339321 0.0142265 0.00551188 
218 1 2.14842 -1.98765 -1.23012 0.00307438 0.0112178 0.0105849 
235 1 2.91068 -4.01363 -0.829213 -0.00541921 0.0239939 -0.0111821 
185 5 -0.141377 -2.7873 -1.96015 0.0011583 -0.000637856 0.00947489 
190 1 0.536673 -3.56695 -1.62433 0.00312085 -0.00233738 0.0062611 
203 1 0.554214 -2.22257 0.922079 -0.00602942 -0.00344722 0.00482001 
183 5 -0.914719 -2.14335 -0.744081 0.000617356 0.00123692 0.0120778 
184 5 -1.62908 -3.39315 -0.0366563 0.00752699 0.0054323 0.00883018 
188 1 -0.806588 -4.04417 0.233391 -0.00392695 0.00132682 0.014499 
189 1 -1.90408 -3.04071 0.951555 0.00966845 0.0059417 0.00417323 
177 1 -2.01553 -5.20312 -2.51658 -0.0176323 0.00594757 -0.0116262 
152 4 -2.54789 -7.48862 -2.17607 0.0033573 0.00188031 -0.000464328 
156 3 -3.50751 -7.75147 -1.50431 -0.00544015 0.00243419 -0.00237054 
168 5 -2.77834 -4.4691 -0.5165 0.00433323 0.005553 0.00242853 
170 5 -2.8831 -4.70321 -2.06524 -0.014144 0.00310912 0.00201049 
171 3 -4.04195 -3.83762 0.046824 0.00188953 0.00296828 0.00808846 
153 5 -3.56411 -7.17881 -0.134319 0.00193796 0.00335275 0.00631583 
169 5 -2.56807 -5.90722 0.17872 -0.000611001 0.00606901 0.000250552 
173 1 -1.53749 -6.16774 -0.0875092 0.00138818 0.0155259 0.00750462 
174 1 -2.60326 -5.72489 1.26512 -0.00161709 0.00383228 0.0128006 
154 5 -3.24061 -8.30208 0.944152 -0.00488391 -0.00891058 0.00237287 
159 1 -3.52672 -7.83944 1.882 -0.011084 -0.00274683 -0.00107378 
219 1 2.85862 -1.71537 0.29266 0.00154525 0.0175328 -0.00891262 
149 1 0.586705 -8.05254 -0.575925 -0.01097 -0.0243788 0.0166241 
137 4 -0.946113 -7.19819 2.52326 -0.00346 0.00866107 0.00328071 
138 5 -1.84441 -9.00585 1.34176 0.00257368 -0.000246066 0.0103723 
139 5 -2.16488 -9.89349 2.65075 -0.00252793 0.00132537 -0.00158412 
141 3 -0.769094 -8.05042 1.64993 -0.00348896 0.00957638 0.00300343 
143 1 -2.10654 -9.13812 3.4183 -0.00328339 0.0120735 -0.008513 
144 1 -3.22469 -10.1559 2.5768 0.00137493 0.00648994 0.0095994 
232 5 8.14385 -2.73919 -1.93634 -0.00110748 0.00510385 0.0110579 
238 1 7.91037 -1.6954 -2.11695 0.00170354 0.00286624 0.0113741 
240 1 9.10694 -2.76643 -1.42872 -0.00255367 0.00903823 0.00127043 
226 2 7.1875 -3.44199 -1.14296 -0.000417745 0.00565974 0.012041 
228 5 4.77043 -3.29358 -1.77882 0.000539443 0.0017873 -6.45936e-05 
230 5 4.00114 -4.06163 -0.677429 -0.000149899 0.00738155 -0.00193971 
231 3 6.15735 -3.81476 -1.81211 -0.00675027 0.00636493 0.00334479 
233 1 5.2984 -1.7903 -0.316522 0.00811285 0.00386408 -0.00837356 
236 1 4.28149 -3.76122 0.331858 0.0156327 -0.00721721 -0.0129596 
237 1 4.25606 -5.13421 -0.680145 -0.0135382 0.0122544 -0.0117592 
179 1 -4.1146 -1.90429 2.25694 0.0142934 -0.00787609 0.00443053 
180 1 -5.50185 -2.87957 2.77135 0.0049629 0.00547178 0.00722295 
191 1 0.428575 -2.07976 -2.57067 0.00898249 0.00286924 0.0167178 
205 1 0.521447 0.243959 -1.90655 0.0145132 0.0130604 -0.0152523 
223 1 3.80422 1.29338 -5.16997 0.00601131 -0.00599691 -0.00119012 
186 3 -1.88345 -1.15574 -1.21198 -0.00171415 -0.000584546 0.00919818 
199 5 0.0861775 -1.42712 0.353047 -0.00181276 0.00674353 0.00629597 
214 5 2.48045 -1.20687 -0.60178 -0.00358232 0.00126788 -0.000672595 
204 1 -0.566324 -0.976707 1.13403 -0.000580858 -0.00297327 0.0103877 
196 2 1.59959 -0.287422 2.39986 0.00377556 0.0036858 0.0024237 
202 5 2.83635 -0.401625 3.06732 0.00924021 0.0151559 -0.00137615 
210 1 2.67233 -0.827531 4.07268 0.0141195 0.0129447 -0.00442336 
181 2 -2.55524 -1.48955 -2.36058 -0.00163234 0.00454768 -0.000727381 
198 5 1.26696 -0.382924 0.0180463 -0.00217713 0.00260816 -0.00380233 
201 3 1.69578 0.361292 1.21542 -0.00263747 0.00458101 0.00188733 
200 5 0.791231 0.718058 -0.939152 0.000666044 -0.00161458 -0.00468478 
207 1 -0.0719099 1.24496 -0.525611 -0.00600868 -0.0106475 -0.0104154 
206 1 1.55578 1.44881 -1.16544 -0.00309718 0.00272944 0.0246434 
197 4 2.0597 1.52603 1.07966 -0.0115784 0.00126669 0.00181438 
182 4 -2.13488 -0.142923 -0.517243 0.00587961 0.00381881 0.00874937 
208 1 3.33669 0.536966 3.25082 0.00339891 0.00837138 -0.0158669 
229 5 4.90439 -1.76178 -1.33569 -0.000500299 0.00114652 0.000215235 
216 3 3.57062 -0.193407 -2.80842 -0.00259802 -0.000860813 -0.00236573 
211 2 4.58763 0.19132 -3.60075 -0.00428781 0.00572089 0.00162432 
225 1 3.99345 2.20252 -3.64998 0.00417745 -0.00383358 -0.00494494 
217 5 4.42138 1.43311 -4.27398 0.00577782 0.00346675 -0.00596338 
215 5 4.42292 0.516469 -0.616559 -0.00221003 0.00627068 -0.000980367 
213 5 3.76825 -0.645328 -1.38376 -0.000397175 0.00439363 0.00261991 
234 1 5.68892 -1.29213 -1.93336 -0.00315691 0.00758635 -0.00688738 
221 1 5.40428 0.812684 -1.02826 0.00729549 -0.00486598 0.00673782 
209 1 3.52692 -1.05822 2.50707 0.0114989 0.0203469 -0.0118016 
222 1 4.59608 0.223653 0.425766 -0.0106595 0.00258978 -0.00340368 
220 1 3.84015 1.42383 -0.628379 -0.00533906 0.00168398 0.000455011 
147 1 -2.22384 -10.6919 -0.0321001 0.0220576 -0.00742196 0.0123484 
145 1 -0.497466 -10.3648 0.272069 0.0080817 0.0257107 0.00440065 
142 5 1.08161 -7.78994 0.357023 -0.00519619 0.000883236 0.010442 
148 1 1.06284 -6.69524 0.464974 -0.0309347 0.00370629 -0.00215637 
150 1 2.12275 -8.12883 0.265387 0.000664144 0.0187881 0.0109998 
140 5 -1.48192 -9.91835 0.148235 0.00764516 0.0075878 0.00591023 
136 2 0.506208 -8.43052 1.48513 -0.00574997 0.00231752 0.00879354 
130 1 -2.5891 9.84382 1.8249 -0.00514567 -0.00831998 -0.00182324 
125 5 -1.55386 9.89668 2.20611 -0.01233 -0.00382292 -0.00118446 
132 1 -0.887641 10.0319 1.33895 -0.00956983 -0.00192726 0.00262388 
118 1 2.17188 7.74492 1.82389 -0.0260436 0.00206589 0.00886289 
123 5 -1.45277 11.1252 3.28114 -0.00415027 -0.00010251 0.000893019 
131 1 -1.3137 8.97154 2.70486 -0.017842 -0.00663024 0.000226321 
120 1 1.36495 9.30888 1.56857 0.0069387 0.0235185 0.0013606 
112 5 2.25965 8.8162 1.96547 -0.00547669 -0.0047014 0.00256769 
119 1 3.11659 9.20197 1.39676 0.00710343 -0.0364547 -0.00472851 
90 1 2.52008 6.00736 5.1921 0.00232759 0.0177201 0.000382444 
127 5 -3.60254 -9.75071 5.73008 0.0052839 -0.00730154 0.0013172 
134 1 -3.49547 -8.76592 5.27169 0.00243765 -0.0011378 0.00330941 
135 1 -3.79539 -9.6493 6.79408 -0.0128413 -0.0154961 -0.00505973 
104 1 5.81901 -8.53365 7.96339 0.00213957 -0.0101322 -0.000301187 
92 4 4.88608 -10.5442 4.99792 0.0114672 -0.00175331 -0.00727026 
284 1 -2.45663 -6.54992 -8.63077 -0.00983952 0.0031596 0.0103181 
101 1 2.20506 -10.1306 7.8337 0.016832 0.00773047 -0.0139525 
96 3 4.34751 -10.7177 6.088 0.0111312 -0.00929286 -0.00586123 
109 5 2.1433 11.1183 5.30728 0.00362997 0.000503837 -0.000371031 
113 1 2.63364 -10.9143 4.34741 -0.0146563 -0.0146541 -0.0151503 
114 1 1.77117 -10.2007 5.61903 -0.00383567 0.00263172 -0.00903241 
124 5 0.0297561 -10.9328 3.89752 -0.00110446 -0.00173692 -0.00930289 
128 1 0.652094 -10.7221 3.02641 0.00562766 -0.00818892 -0.0073722 
129 1 -0.0374547 -9.97239 4.40824 0.00317224 -0.0107621 -0.00105845 
105 1 4.04892 -8.65375 7.80385 0.00198334 0.00208939 -0.0117775 
97 5 4.99858 -8.87147 7.32275 -0.000440485 -0.00519202 -0.00535805 
103 1 5.06253 -8.25127 6.42569 0.00419919 0.00099361 -0.0026543 
87 1 6.34328 9.7702 4.94254 0.00251057 0.00263547 -0.0221865 
91 2 5.13557 -10.2962 7.07151 0.0030811 0.000713231 -0.0078708 
290 5 -1.10666 -1.03741 -10.4708 -0.010201 -0.0110115 0.00174164 
288 5 -1.11506 -2.53878 -10.1731 -0.00493165 -0.0025534 -0.0056663 
287 4 -3.22423 -3.53843 -9.6895 -0.004445 -0.0127966 0.00401409 
295 1 -0.0915521 -0.626237 -10.3429 -0.00213371 -0.0326758 -0.0154531 
297 1 -1.38262 -0.93659 10.7848 -0.0271392 -0.00264424 0.00615301 
282 1 1.09201 -3.59384 -10.9696 -0.00759786 -0.0125816 0.0018186 
291 3 -2.33317 -3.37199 -10.5131 -0.00585712 -0.00528509 0.00318382 
286 2 -2.68075 -3.70783 10.474 -0.00899351 -0.00888304 0.00347065 
292 5 -1.73161 -4.52402 9.75894 0.00239109 -0.0143278 0.0078848 
300 1 -0.894162 -3.9107 9.41211 -0.00234743 -0.00337641 0.00768105 
299 1 -1.35335 -5.30317 10.4157 0.0151777 0.00255195 0.0170838 
272 4 -0.0147964 -5.94713 -9.84265 0.00122563 -0.00600079 0.0110361 
298 1 -2.20124 -5.01685 8.90815 0.00598354 -0.0231399 0.0104655 
10 1 7.88178 -0.503798 8.27445 -0.01279 0.00326866 0.0108091 
280 1 2.33082 -4.55869 -10.1729 -0.00345363 -0.00534338 0.000510958 
11 1 8.89319 0.737245 7.58096 0.0138958 -0.0172018 -0.00313925 
12 1 7.34003 1.18536 8.1614 0.00366883 -0.0213171 -0.0210627 
5 5 8.16673 0.541705 8.39884 -0.0019456 -0.00116748 -0.00853287 
133 1 -4.45921 -10.2875 5.29773 0.00761892 -0.0022074 -0.0030393 
122 4 -2.97835 9.96184 4.55436 0.000828178 -0.00314772 0.00165515 
121 2 -2.34092 -10.4534 5.57288 0.00466357 -0.00376745 0.00377909 
102 1 3.32764 11.0611 8.59221 0.00259135 -0.0115785 0.00166531 
106 2 2.33871 9.16418 3.34555 -0.00239125 -0.00560589 -0.00259819 
126 3 -2.24174 10.9301 4.52998 -0.000860184 0.00266309 -0.00288694 
93 5 3.25269 10.6805 6.39983 0.00903597 -0.0112569 0.0052283 
94 5 3.78404 9.13881 6.38614 0.00334809 -0.00492245 0.00175196 
95 5 2.6042 11.1452 7.79247 0.00108143 -0.00159123 -0.00570779 
98 1 3.2857 8.69324 7.25743 0.00980055 -0.0105852 0.000970317 
99 1 3.2611 8.68996 5.55166 0.0155451 -0.0174392 0.00322965 
100 1 1.73095 10.5166 8.04361 -0.00111725 0.00410883 -0.00509876 
107 4 0.725073 7.94649 4.18865 0.000937159 0.00303194 0.00652967 
108 5 0.821357 10.3053 4.86758 0.000385407 0.00458495 -0.000239578 
110 5 0.0186223 9.76028 6.10877 -0.000440767 0.00557605 0.00228687 
111 3 1.1714 9.09869 4.0448 0.000363737 0.0047608 0.00207367 
115 1 -0.804678 9.1068 5.79733 0.00336466 -0.00219736 0.00610468 
116 1 -0.403881 10.5421 6.7517 0.00361031 0.00591578 -0.00304212 
117 1 0.720669 9.12644 6.66756 0.00539415 0.0143735 0.00571363 
27 1 8.63191 3.12281 7.25484 0.0158274 0.0172544 -0.0159075 
20 5 8.91331 3.85016 8.02191 -0.000988186 0.00165512 -0.00675699 
25 1 9.33862 4.70196 7.50855 0.00833828 0.0032874 0.0279856 
26 1 7.95472 4.18972 8.47266 -0.0197626 -0.0103954 -0.00523671 
88 1 3.25742 4.8858 6.34132 -0.0133504 -0.00870087 -0.0153853 
85 1 5.13156 8.82889 4.15596 0.00420757 0.0005081 0.00179892 
69 1 7.8086 9.72215 9.4863 -0.00357938 -0.000914555 -0.0101446 
68 1 9.33581 9.08183 8.92994 0.0235564 -0.0176889 0.0265416 
64 5 8.28018 8.81885 9.10182 -0.000454095 0.00458246 -0.00590702 
62 4 7.96379 10.6746 6.73022 0.00533725 0.000121323 0.00910286 
67 5 9.92964 9.21025 5.01572 -0.00746081 0.00846918 -0.00615852 
74 1 9.31477 8.40247 4.67794 -0.00962266 0.0100878 0.0166713 
75 1 10.9852 8.90792 4.93421 0.00177766 0.00794208 -0.00644876 
61 2 9.65332 9.42845 6.4154 -0.000550557 0.00305376 -0.0029958 
83 1 5.98233 9.94958 7.78798 -0.00726931 -0.00344081 -0.0200173 
80 5 5.88902 8.78611 4.94328 0.00652519 -0.00927109 -0.0100556 
66 3 8.33297 9.53082 6.72665 0.000107294 0.00642986 -0.00672359 
63 5 7.64886 8.53697 7.60863 -0.00307655 -0.000615208 -0.0119688 
79 5 6.0708 8.85657 7.5594 0.00204029 -0.00133778 0.00249407 
84 1 5.63261 8.42967 8.428 -0.0114756 0.00204151 0.00709202 
71 1 7.51247 6.83445 6.15467 0.0059062 0.0113864 -0.0250513 
81 3 4.89374 6.99086 6.45633 0.00449178 0.00205434 0.00181792 
82 5 3.4247 5.44938 5.41132 -0.00373487 0.0123299 -0.00250789 
65 5 7.93245 7.09885 7.11468 -0.00867617 -0.00523512 -0.00510231 
72 1 8.98611 6.90307 7.14165 -0.0139482 -0.0184621 -0.0237205 
70 1 7.47929 6.41546 7.77697 -0.0150086 0.0172012 -0.0130524 
77 4 4.73746 6.39901 7.54133 -0.00536088 0.0026254 0.000323986 
73 1 9.73462 10.0901 4.39143 -0.0065704 0.00815412 -0.0145009 
78 5 5.22551 8.43164 6.33201 0.00924595 0.00483577 -0.0022609 
86 1 6.6424 8.08019 4.63112 0.00145914 -0.0133533 0.000592791 
76 2 4.63103 6.26899 5.34655 0.00166957 0.00599037 -0.00265092 
89 1 3.52867 4.65204 4.68955 0.00357687 0.0217495 -0.0137192 
ITEM: TIMESTEP
10000
ITEM: NUMBER OF ATOMS
300
ITEM: BOX BOUNDS pp pp pp
-1.1149221000000001e+01 1.1149221000000001e+01
-1.1149221000000001e+01 1.1149221000000001e+01
-1.1149221000000001e+01 1.1149221000000001e+01
ITEM: ATOMS id type x y z vx vy vz 
270 1 -3.97934 -10.5758 -3.8983 0.00301207 0.00504074 0.0121086 
262 5 -3.81434 -9.58241 -4.31416 -0.00735783 0.000185663 0.00159262 
269 1 -4.76801 -9.04499 -4.28043 -0.00644771 0.00362946 0.00507347 
268 1 -3.56341 -9.74285 -5.3551 0.00223229 -0.00599021 0.00831892 
242 4 -2.04399 -4.52837 -4.22675 -0.0036977 -0.000860563 0.00463913 
247 5 0.000184185 -5.87075 -5.81232 -0.00457631 -0.00171053 0.0024264 
255 1 -0.162634 -4.85311 -6.19849 -0.0139183 -0.00626858 0.0133512 
254 1 1.011 -5.90952 -5.44465 -0.00104181 -0.00454504 -0.00160498 
246 3 -1.11909 -5.18169 -3.82548 -0.00421522 -0.00178108 0.00409122 
241 2 -0.923228 -6.13605 -4.71744 -0.00590151 -0.000600727 -0.00333534 
165 1 0.925335 -6.96211 -10.7346 0.0384146 -0.0165742 -0.0109945 
163 1 1.0277 -5.31858 -10.2314 0.00173658 -0.00943359 -0.0032286 
253 1 -0.102458 -6.68191 -6.54265 -0.0083991 -0.0104604 0.00234608 
164 1 2.49162 -6.09374 -10.8577 0.0258538 0.0224648 0.000654232 
157 5 1.41212 -6.00443 -10.9509 0.0129806 0.00226295 -0.00299259 
227 4 0.217915 -2.43117 -4.19031 0.00158106 -0.00364946 0.00372189 
238 1 2.34724 -2.52381 -5.70836 -0.010516 0.0310937 0.00856446 
240 1 3.42659 -1.69647 -4.64911 0.014729 -0.00838773 -0.00509735 
232 5 2.95483 -2.66749 -4.81033 -0.00206157 0.00105745 0.00413975 
239 1 3.72806 -3.41634 -5.01578 -0.00848395 0.00653345 -0.012935 
43 1 -8.7221 4.39238 -3.98691 -0.00439883 0.0117378 -0.0158313 
75 1 3.47681 8.46037 -5.33729 0.00385955 -0.0137302 0.0072905 
73 1 3.32734 9.63243 -4.05159 -0.00860799 0.0273312 -0.026462 
67 5 3.7895 8.67557 -4.30555 -0.00812185 0.00542704 0.00546093 
32 4 11.0168 5.22461 -3.78004 0.000128285 0.00412318 -0.00724853 
56 1 10.3197 9.54825 -4.02445 0.0196754 0.00615829 0.0168307 
57 1 10.4921 7.81886 -4.31036 0.00508714 -0.000108413 -0.0197276 
61 2 5.23431 8.7507 -4.25436 -0.00166505 -0.00358645 -0.00555294 
68 1 7.96778 8.22272 -3.76611 0.00118192 -0.0293991 0.00708039 
296 1 -7.70137 -10.0437 1.77728 0.0118262 -0.0392021 0.00802038 
297 1 -7.09278 -8.68695 2.60791 -0.0150467 0.0115997 -0.0358806 
290 5 -6.93463 -9.75967 2.46982 -0.0101308 -0.000119279 -0.00261548 
295 1 -7.14686 -10.3107 3.38056 0.00616436 -0.0366228 -0.00358273 
282 1 -4.79214 -10.9433 -0.470067 0.00701839 -0.020204 0.00171143 
281 1 -5.33636 -9.42793 -1.19415 8.01475e-05 -0.00593769 0.00980807 
288 5 -5.54131 -10.0937 1.90928 -0.00518336 -0.00337015 0.000386685 
280 1 -3.8306 -10.1745 -1.71215 -0.00286994 -0.0119742 0.0070445 
275 5 -4.46187 -9.9947 -0.872342 -0.00747986 -0.0064529 0.00680907 
293 1 -5.36836 -8.08422 1.11658 0.0149311 -0.00536013 0.00268331 
289 5 -4.64381 -8.8701 1.473 -0.00471641 -0.00218373 -0.00356305 
278 1 -4.02111 -7.28451 -0.570287 -0.00315781 -0.0347209 -0.00139964 
294 1 -4.09398 -8.50218 2.35011 0.000261008 -0.0107496 0.0158482 
60 1 -10.5406 -10.378 -0.912972 0.0124142 -0.0215178 -0.0149641 
256 2 -2.7257 -8.85002 -3.68345 -0.0060828 -0.00685835 0.00777847 
257 4 -3.6605 -6.89973 -3.06561 0.001008 0.000787013 0.00570603 
260 5 -0.943069 -8.64451 -1.49852 -0.00133775 0.00190846 0.00714475 
267 1 -1.25069 -9.68013 -1.53649 -0.00586903 -0.000435876 0.0157546 
258 5 -2.16527 -7.68413 -1.55433 -0.00599525 -0.00175176 0.000641507 
273 5 -3.69066 -9.2521 0.259404 -0.00516278 -0.00365534 0.00889633 
272 4 -2.27441 -11.124 0.30066 -0.00319353 -0.00723316 0.00461235 
261 3 -2.94713 -7.85844 -2.78425 -0.00835738 0.00205218 0.0041253 
266 1 -0.335163 -8.51698 -2.38913 -0.0187205 0.0108869 -0.00135275 
259 5 -1.65118 -6.16996 -1.43231 0.000440924 -0.00311601 0.00306482 
265 1 -0.337752 -8.39334 -0.638056 -0.00649838 -0.0175856 -0.00698406 
271 2 -1.39555 -9.48317 1.25317 -0.00275295 -0.000935281 0.00724491 
276 3 -2.47167 -9.98367 0.701386 -0.00321873 0.00577282 -0.00361028 
274 5 -3.13765 -7.86899 -0.291853 -0.00510839 -0.00865812 0.000759523 
279 1 -2.61303 -7.39226 0.550984 -0.0222296 0.00253053 0.0100157 
264 1 -2.5784 -5.55911 -1.26139 0.0117663 0.0117689 0.00414261 
263 1 -1.21622 -6.0797 -0.417767 0.0108248 0.00183056 -0.00952105 
243 5 -0.712631 -5.28816 -2.38888 -0.00602371 -0.00394195 0.00245985 
251 1 0.828057 -6.82165 -2.77976 0.0181483 0.012083 0.0081621 
252 1 1.04482 -6.11421 -1.26975 -0.00615927 -0.0134391 0.00961797 
245 5 0.782422 -5.88018 -2.30281 -0.00696897 -9.75247e-05 -0.00318306 
250 1 1.53218 -5.29422 -2.83908 0.00482928 -0.0124472 0.00224811 
92 4 2.94904 -10.0943 1.35463 -0.00160566 0.00624522 -0.000207011 
192 1 -0.485657 -4.56934 3.71177 -0.00812965 -0.00117066 0.00711236 
103 1 2.91839 -7.52127 0.109816 -0.00837207 -0.0183898 0.0145535 
248 1 -0.801551 -3.93775 -0.670542 -0.000727135 -0.0019151 -0.00577122 
244 5 -0.717205 -3.82846 -1.76145 -0.00281586 -0.0072752 -0.000558104 
237 1 1.98389 -4.01539 -1.12712 -0.00015473 -0.00245923 -0.00420678 
277 5 -1.36504 -9.73452 2.68383 -0.010091 0.00182949 0.00226076 
283 1 -2.17616 -9.32362 3.26683 -0.00352633 0.0157308 -0.00109609 
285 1 -1.32498 -10.7929 2.88183 -0.014327 0.00706981 0.00469696 
284 1 -0.435403 -9.28741 3.07764 0.00376912 -0.0132025 -0.00911993 
113 1 4.38825 -10.3321 3.25846 0.000214963 0.00438136 0.00784428 
104 1 4.1476 -7.42144 -1.25521 -0.0145249 -0.0386535 -0.0198984 
96 3 4.03589 -9.90142 0.823848 0.00272076 0.00140186 -0.0111715 
105 1 4.69914 -7.43237 0.361578 0.00436311 -0.0158554 -0.00814059 
97 5 3.91051 -7.84693 -0.275525 -0.0035007 -0.0123456 -0.0011144 
91 2 3.98474 -9.27712 -0.339196 0.000620528 -0.00329859 0.0004104 
93 5 5.32187 -10.417 1.37696 0.003603 -0.00334154 -0.0125184 
114 1 5.22627 -8.8643 2.82904 0.000744532 -0.000180666 -0.00813348 
109 5 5.35519 -9.95454 2.87442 -0.000832919 -0.0101472 -0.00563204 
101 1 6.79463 -8.70052 1.07923 -0.00787975 0.00514567 -0.00566075 
102 1 6.44364 -9.54889 -0.41125 -0.00312203 -0.0108556 -0.0153458 
95 5 6.5577 -9.69795 0.648537 0.000326124 0.00857796 0.0035953 
100 1 7.53992 -10.1995 0.804069 -0.0193018 0.0212538 -0.00510678 
59 1 10.9016 -11.0393 0.459236 -0.00921977 -0.00790442 0.010297 
116 1 7.85157 -8.8061 3.42602 0.0111389 -0.00276849 0.00449892 
117 1 8.21562 -10.392 2.89441 0.0133855 0.0147589 -0.0177233 
223 1 -5.09081 -1.96787 -1.29016 -0.00620968 0.00496788 0.0118143 
28 1 -10.3863 1.50619 -1.22616 0.0276338 -0.00434027 -0.0119651 
16 2 -10.6964 2.32955 0.701561 -0.00145425 0.00636929 0.00277848 
22 5 -10.2901 1.22039 -0.157585 0.00418575 0.00702984 0.00251518 
30 1 -9.24299 1.00306 0.0591017 -0.00163404 0.00860303 0.0225113 
224 1 -5.32933 -0.212088 -1.50077 0.0080278 0.00947501 0.00933284 
225 1 -5.05138 -0.940809 0.136917 -0.000769853 -0.000640822 0.0133169 
217 5 -4.80079 -0.982257 -0.938741 -0.000263994 0.00293042 0.00443623 
29 1 -10.9074 0.312718 0.0506035 -0.0135881 0.00845415 0.00558928 
8 1 -10.8872 3.5819 3.36419 0.00285424 0.00515257 -0.014492 
226 2 2.30164 -3.03948 -3.56837 -0.00123938 -0.000783351 0.0075289 
190 1 0.310901 -3.61612 2.53854 0.00273407 -0.0103026 0.00365539 
212 4 -2.72116 -2.39952 0.146708 -0.00244626 0.000167302 0.00668049 
218 1 -0.438017 -2.20513 1.07167 0.0141709 0.000597577 0.0129315 
185 5 -0.522588 -3.61195 3.22404 -0.00134513 0.00224557 0.00551691 
203 1 1.27858 -1.23439 3.2483 -0.00855437 -0.0177206 -0.0191519 
219 1 0.740901 -0.95271 0.863516 0.00929878 -0.0151579 0.00995466 
191 1 -1.49779 -3.49693 2.71219 -0.00703441 -0.00839961 0.0110672 
205 1 -2.42104 -1.50971 2.81898 -0.00838872 -0.0205148 -0.03119 
199 5 0.245153 -1.08987 3.58521 -3.48853e-05 -0.00106954 0.00167177 
214 5 -0.310934 -1.14149 1.00451 0.000263424 0.00226981 -0.00375995 
196 2 0.978262 1.25841 1.7831 0.00281988 0.00269643 0.00341455 
202 5 2.01056 1.95181 2.48781 -0.00209513 -0.00441322 -0.00144141 
198 5 -0.621309 -0.437339 2.42763 0.00399652 0.00187493 0.00503504 
201 3 -0.130829 0.976251 2.43804 -0.00510696 0.00795707 -0.00675449 
200 5 -2.14073 -0.479539 2.78599 0.00831266 -0.00027725 0.00206528 
206 1 -2.79915 -0.0434613 2.00979 0.00935189 -0.0162338 -0.00388048 
197 4 -0.747948 1.94215 2.9302 0.0045959 0.00762754 -0.00435354 
216 3 -2.45716 -1.40977 -0.47569 0.000654905 -0.00777692 0.00238298 
220 1 -2.04026 1.25505 0.30612 -0.0160255 -0.0104264 0.0150822 
211 2 -3.37803 -0.734933 -1.19584 -0.00234856 0.0028558 -0.0016835 
213 5 -1.06045 -0.792542 -0.326307 -0.000623056 -0.000339097 0.00489809 
249 1 -1.65893 -3.39873 -2.12475 0.00603839 0.01292 0.0267515 
235 1 1.22836 -3.21129 0.109407 -0.0241848 0.00259219 -0.00891397 
215 5 -1.28413 0.838187 -0.395758 -0.00938694 -0.00920538 0.00569002 
229 5 -0.123857 -1.21181 -1.61109 -0.00509596 -0.00168381 0.0025711 
234 1 -0.782997 -1.11713 -2.49379 -0.00283367 -0.0114971 -0.00434895 
221 1 -1.64416 1.11768 -1.36154 -0.00388011 0.0033803 0.022093 
222 1 -0.336408 1.35637 -0.275511 -0.0253859 -0.00772239 0.0323673 
230 5 1.55131 -3.0371 -0.880491 0.00384853 0.00105782 -0.00253189 
231 3 1.0516 -2.64308 -3.29206 -0.00938781 -0.011009 -0.0102506 
228 5 0.43003 -2.69798 -1.92408 -0.0110365 0.00279976 0.00223458 
233 1 0.755037 -0.568356 -1.67167 -0.0168207 -0.000678809 -0.00670929 
209 1 1.66444 2.95298 2.79411 -0.00678569 -0.00504739 0.0123054 
236 1 2.33037 -2.29796 -0.927504 -0.00780141 -0.0030007 0.00910149 
210 1 2.77938 2.03532 1.76337 0.00705481 0.0142692 -0.00445558 
208 1 2.32235 1.44504 3.39932 0.00382224 0.00777329 -0.00317366 
17 4 9.55522 1.84703 1.08307 0.00560116 -0.00774917 0.00493183 
21 3 10.2795 2.64482 0.571973 -0.000961101 0.00174677 0.00249278 
11 1 7.89494 3.39827 2.62105 -0.00472614 0.0161625 0.0418159 
27 1 7.66454 3.33463 0.452313 -0.0210078 0.0414141 -0.00947222 
4 5 10.3651 3.50716 3.59536 0.00500558 0.0119809 0.00142499 
291 3 -4.97857 11.091 2.64674 -0.00581687 0.0046905 0.00257963 
58 1 -10.1242 10.2679 -0.41738 0.00688346 0.00975587 -0.0153713 