read using pysimm.system.read_mol

7 atoms
7 bonds
8 angles
0 dihedrals
0 impropers

3 atom types
2 bond types
1 angle types

-13.290500 13.292500 xlo xhi
-12.121700 12.841700 ylo yhi
-10.549200 11.028200 zlo zhi

Masses

   1	15.034
   2	13.018
   3	12.01

Pair Coeffs

   1	0.19474	3.75
   2	0.10035	3.695
   3	0.04173	3.88

Bond Coeffs

   1	5000.0	1.4
   2	5000.0	1.54

Angle Coeffs

   1	5000.0	120.0

Atoms

   1	1	3	0	-1.21241	-0.331716	0.000460468
   2	1	2	0	1.21246	-0.331491	-0.000693376
   3	1	2	0	9.25687e-05	-1.0316	1.03773e-05
   4	1	2	0	-1.21254	1.06828	0.000398264
   5	1	2	0	1.21233	1.06851	-0.000389329
   6	1	2	0	-0.000167649	1.7684	3.28067e-07
   7	1	1	0	-2.54602	-1.10184	-0.000427083

Velocities

   1	-1.92247e-07	-1.50612e-07	-1.49082e-08
   2	1.94278e-07	-1.51941e-07	5.54101e-08
   3	4.35049e-09	2.42428e-08	-1.47441e-08
   4	-1.76794e-07	-3.05153e-09	7.56444e-09
   5	1.7681e-07	-3.67578e-09	-2.01054e-08
   6	-1.57793e-09	1.63953e-07	-5.34978e-10
   7	2.02747e-07	4.76605e-08	3.77879e-09

Bonds

   1	1	1	3
   2	1	1	4
   3	2	1	7
   4	1	2	3
   5	1	2	5
   6	1	4	6
   7	1	5	6

Angles

   1	1	3	1	4
   2	1	3	1	7
   3	1	4	1	7
   4	1	3	2	5
   5	1	1	3	2
   6	1	6	4	1
   7	1	6	5	2
   8	1	4	6	5

