pySIMM System Object

4523 atoms
4872 bonds
7511 angles
11125 dihedrals
0 impropers

13 atom types
15 bond types
26 angle types
38 dihedral types

-22.432100 22.432100 xlo xhi
-22.432100 22.432100 ylo yhi
-22.432100 22.432100 zlo zhi

Masses

   1	15.9994	# OA0
   2	12.011	# CS0
   3	13.01894	# CA1
   4	12.011	# CA0
   5	12.011	# CH0
   6	14.02688	# CH2
   7	15.03482	# CH3
   8	12.011	# LCS0
   9	12.011	# CL0
  10	14.00674	# NL0
  11	15.9994	# LOA0
  12	16.0	# O
  13	12.01	# C

Pair Coeffs

   1	0.139104	2.599999	# OA0
   2	0.059616	3.7	# CS0
   3	0.100354	3.695002	# CA1
   4	0.041731	3.879998	# CA0
   5	0.000994	6.400003	# CH0
   6	0.091411	3.950004	# CH2
   7	0.194746	3.749998	# CH3
   8	0.059616	3.7	# LCS0
   9	0.119232	3.55	# CL0
  10	0.119232	2.949997	# NL0
  11	0.139104	2.599999	# LOA0
  12	0.15699	3.05	# O
  13	0.05365	2.8	# C

Bond Coeffs

   1	372.4	1.373	# CS0,OA0
   2	478.4	1.387	# CS0,CS0
   3	478.4	1.387	# CA0,CA1
   4	478.4	1.387	# CA0,CA0
   5	478.4	1.387	# CS0,CA1
   6	303.1	1.535	# CH2,CH0
   7	323.5	1.513	# CA0,CH0
   8	303.1	1.535	# CH0,CH3
   9	478.4	1.387	# LCS0,LCS0
  10	478.4	1.387	# CS0,CA0
  11	478.4	1.387	# LCS0,CA0
  12	404.1	1.44	# CA0,CL0
  13	1014.5	1.138	# CL0,NL0
  14	372.4	1.373	# CS0,LOA0
  15	500.0	1.16	# O,C

Angle Coeffs

   1	63.31	119.95	# CS0,OA0,CS0
   2	69.79	119.2	# OA0,CS0,CS0
   3	69.79	119.2	# OA0,CS0,CA1
   4	67.18	119.97	# CS0,CS0,CA1
   5	67.18	119.97	# CA0,CA1,CS0
   6	67.18	119.97	# CA1,CA0,CA0
   7	63.84	120.63	# CA1,CA0,CH0
   8	63.84	120.63	# CA0,CA0,CH0
   9	63.25	112.09	# CH2,CH0,CA0
  10	63.21	110.63	# CH2,CH0,CH3
  11	63.25	112.09	# CA0,CH0,CH3
  12	63.21	110.63	# CH3,CH0,CH3
  13	63.21	110.63	# CH0,CH2,CH0
  14	63.21	110.63	# CH2,CH0,CH2
  15	63.66	112.26	# CA0,CH0,CA0
  16	67.18	119.97	# LCS0,LCS0,CA0
  17	67.18	119.97	# CS0,CA0,LCS0
  18	65.86	120.0	# CS0,CA0,CL0
  19	65.86	120.0	# LCS0,CA0,CL0
  20	67.18	119.97	# CA0,CS0,CS0
  21	69.79	119.2	# CA0,CS0,OA0
  22	63.14	180.0	# CA0,CL0,NL0
  23	69.79	119.2	# LOA0,CS0,CS0
  24	69.79	119.2	# LOA0,CS0,CA1
  25	67.18	119.97	# CS0,CA0,CS0
  26	200.0	180.0	# O,C,O

Dihedral Coeffs

   1	0.9	-1	2	# CS0,CS0,OA0,CS0
   2	0.9	-1	2	# CA1,CS0,OA0,CS0
   3	3.625	-1	2	# OA0,CS0,CS0,OA0
   4	3.625	-1	2	# OA0,CS0,CS0,CA1
   5	3.625	-1	2	# CA1,CS0,CS0,CA1
   6	3.625	-1	2	# CA0,CA0,CA1,CS0
   7	3.625	-1	2	# CH0,CA0,CA1,CS0
   8	3.625	-1	2	# CA1,CA0,CA0,CA1
   9	3.625	-1	2	# CA1,CA0,CA0,CH0
  10	3.625	-1	2	# CH0,CA0,CA0,CH0
  11	3.625	-1	2	# CS0,CS0,CA1,CA0
  12	3.625	-1	2	# OA0,CS0,CA1,CA0
  13	0.15555	 1	3	# CH0,CH2,CH0,CA0
  14	0.15555	 1	3	# CH0,CH2,CH0,CH3
  15	0.0	 1	2	# CA0,CA0,CH0,CH2
  16	0.0	 1	2	# CA0,CA0,CH0,CH3
  17	0.0	 1	2	# CA1,CA0,CH0,CH2
  18	0.0	 1	2	# CA1,CA0,CH0,CH3
  19	0.15555	 1	3	# CH0,CH2,CH0,CH2
  20	0.0	 1	2	# CA0,CA0,CH0,CA0
  21	0.0	 1	2	# CA1,CA0,CH0,CA0
  22	3.625	-1	2	# CA0,LCS0,LCS0,CA0
  23	3.625	-1	2	# CS0,CS0,CA0,LCS0
  24	3.625	-1	2	# CS0,CS0,CA0,CL0
  25	3.625	-1	2	# OA0,CS0,CA0,LCS0
  26	3.625	-1	2	# OA0,CS0,CA0,CL0
  27	3.625	-1	2	# CA0,CS0,CS0,CA0
  28	3.625	-1	2	# CA0,CS0,CS0,OA0
  29	3.625	-1	2	# LCS0,LCS0,CA0,CS0
  30	3.625	-1	2	# LCS0,LCS0,CA0,CL0
  31	0.0	-1	2	# CS0,CA0,CL0,NL0
  32	0.0	-1	2	# LCS0,CA0,CL0,NL0
  33	0.9	-1	2	# CA0,CS0,OA0,CS0
  34	3.625	-1	2	# LOA0,CS0,CS0,LOA0
  35	3.625	-1	2	# LOA0,CS0,CS0,CA1
  36	3.625	-1	2	# LOA0,CS0,CA1,CA0
  37	3.625	-1	2	# CS0,CS0,CA0,CS0
  38	3.625	-1	2	# OA0,CS0,CA0,CS0

Atoms

   1	1	4	0.0384	16.3926	-16.7964	-1.24291
   2	1	4	0.0384	15.3409	-16.1858	-0.56004
   3	1	5	0.0979	14.0132	-16.8874	-0.843146
   4	1	6	-0.0165	14.3811	-17.7668	-1.98269
   5	1	7	0	12.8413	-15.983	-1.32487
   6	1	5	0.0979	15.9324	-17.9207	-2.10108
   7	1	6	-0.0165	16.2412	-19.3427	-1.67839
   8	1	5	0.0979	16.7756	-20.2241	-2.78038
   9	1	4	0.0384	16.6762	-19.163	-3.96933
  10	1	4	0.0384	16.3809	-17.8265	-3.5462
  11	1	3	-0.125	16.3694	-16.7591	-4.41626
  12	1	2	0.1778	16.5241	-17.066	-5.80079
  13	1	2	0.1778	16.4902	-18.4432	-6.25162
  14	1	3	-0.125	16.6798	-19.4581	-5.32724
  15	1	1	-0.2191	16.3907	-18.722	-7.57765
  16	1	1	-0.2191	16.5298	-16.0628	-6.7634
  17	1	7	0	18.2415	-20.589	-2.44618
  18	1	7	0	15.9972	-21.4935	-2.96171
  19	1	2	0.1723	16.611	-16.3965	-8.13479
  20	1	2	0.1723	16.3528	-17.7293	-8.5026
  21	1	4	-0.123	16.3762	-18.1075	-9.84742
  22	1	9	0.3137	16.1523	-19.5338	-10.1916
  23	1	10	-0.41	15.9771	-20.5949	-10.5908
  24	1	1	-0.2191	16.8031	-13.0138	0.447238
  25	1	2	0.1778	17.8368	-14.9506	-0.452254
  26	1	1	-0.2191	19.0226	-14.2179	-0.583222
  27	1	3	-0.125	17.6421	-16.1291	-1.23089
  28	1	2	0.1723	16.856	-17.1724	-10.7868
  29	1	2	0.1723	17.2791	-15.8936	-10.3955
  30	1	4	-0.123	17.0677	-15.4992	-9.08655
  31	1	9	0.3137	17.4404	-14.2056	-8.71766
  32	1	10	-0.41	17.7551	-13.2005	-8.32602
  33	1	2	0.1778	16.7452	-14.3597	0.109028
  34	1	3	-0.125	15.4903	-14.9805	0.105279
  35	1	7	0	13.4775	-17.6568	0.36426
  36	1	4	0.0384	18.3813	1.428	1.50324
  37	1	4	0.0384	17.2501	0.557292	1.41272
  38	1	5	0.0979	17.3925	-0.772132	2.18554
  39	1	6	-0.0165	18.9062	-0.629632	2.55169
  40	1	7	0	17.1879	-1.98962	1.22943
  41	1	5	0.0979	19.5857	0.709814	2.13582
  42	1	6	-0.0165	20.1271	1.39709	3.43078
  43	1	5	0.0979	21.6886	1.6376	3.21502
  44	1	4	0.0384	21.9519	1.12856	1.77968
  45	1	4	0.0384	20.7901	0.643327	1.20989
  46	1	3	-0.125	20.8201	0.167019	-0.146474
  47	1	2	0.1778	21.9929	0.16694	-0.894677
  48	1	2	0.1778	-21.6428	0.520143	-0.243149
  49	1	3	-0.125	-21.6403	0.983301	1.13713
  50	1	1	-0.2191	-20.5213	0.390494	-1.06537
  51	1	1	-0.2191	22.0135	-0.269866	-2.25352
  52	1	7	0	22.0223	3.0377	3.43363
  53	1	7	0	-22.4572	0.817608	4.32314
  54	1	2	0.1723	-21.7078	-0.500047	-2.94519
  55	1	2	0.1723	-20.4902	-0.165312	-2.34573
  56	1	4	-0.123	-19.3496	-0.183776	-3.14521
  57	1	9	0.3137	-18.0766	0.131782	-2.55524
  58	1	10	-0.41	-17.1267	0.586873	-2.10151
  59	1	1	-0.2191	15.0749	2.71332	-0.68902
  60	1	2	0.1778	17.2673	3.07936	0.199427
  61	1	1	-0.2191	17.3228	4.26807	-0.44676
  62	1	3	-0.125	18.4265	2.65056	0.860839
  63	1	2	0.1723	-19.3943	-0.752055	-4.43773
  64	1	2	0.1723	-20.625	-1.22819	-4.96445
  65	1	4	-0.123	-21.7704	-1.0706	-4.25174
  66	1	9	0.3137	21.736	-1.30368	-4.77318
  67	1	10	-0.41	20.7219	-1.51503	-5.20952
  68	1	2	0.1778	16.1689	2.26865	0.0557838
  69	1	3	-0.125	16.1613	1.03358	0.673545
  70	1	7	0	16.4916	-0.970764	3.41827
  71	3	4	0.0384	0.18731	18.3098	-18.8096
  72	3	4	0.0384	-0.0392917	17.5115	-17.6825
  73	3	5	0.0979	0.333304	18.1735	-16.3579
  74	3	6	-0.0165	1.04687	19.4389	-16.8469
  75	3	7	0	1.26312	17.2178	-15.5752
  76	3	5	0.0979	0.941156	19.5648	-18.4032
  77	3	6	-0.0165	0.017057	20.8105	-18.7368
  78	3	5	0.0979	1.0333	21.9784	-19.1798
  79	3	4	0.0384	2.37478	21.2597	-19.3363
  80	3	4	0.0384	2.24638	19.8776	-19.1517
  81	3	3	-0.125	3.29111	18.966	-19.4413
  82	3	2	0.1778	4.53689	19.4665	-19.8323
  83	3	2	0.1778	4.69987	20.8738	-19.7447
  84	3	3	-0.125	3.67307	21.7962	-19.5935
  85	3	1	-0.2191	6.0181	21.4015	-19.6845
  86	3	1	-0.2191	5.63731	18.6773	-19.8783
  87	3	7	0	0.611895	-22.1692	-20.4742
  88	3	7	0	1.10462	-21.7978	-17.992
  89	3	2	0.1723	6.94025	19.1717	-20.0296
  90	3	2	0.1723	7.15226	20.571	-19.6966
  91	3	4	-0.123	8.44389	21.0059	-19.437
  92	3	9	0.3137	8.69232	22.3806	-19.0087
  93	3	10	-0.41	8.90887	-21.4169	-18.6937
  94	3	1	-0.2191	-1.82312	14.6346	-19.1645
  95	3	2	0.1778	-1.02459	16.7234	-20.1688
  96	3	1	-0.2191	-1.47684	16.2282	-21.4222
  97	3	3	-0.125	-0.182023	17.9069	-20.077
  98	3	2	0.1723	9.48858	20.1041	-19.3872
  99	3	2	0.1723	9.26703	18.7453	-19.7527
 100	3	4	-0.123	8.00174	18.2972	-20.0049
 101	3	9	0.3137	7.72142	16.9282	-20.1103
 102	3	10	-0.41	7.52271	15.8286	-20.1677
 103	3	2	0.1778	-1.13443	15.8421	-19.0659
 104	3	3	-0.125	-0.643959	16.2492	-17.7954
 105	3	7	0	-0.88901	18.5911	-15.4894
 106	1	4	0.0384	12.7976	5.51962	-8.55423
 107	1	4	0.0384	12.5571	5.85823	-7.2091
 108	1	5	0.0979	11.1486	5.44603	-6.7256
 109	1	6	-0.0165	10.5939	4.7203	-7.97105
 110	1	7	0	10.1953	6.56922	-6.31929
 111	1	5	0.0979	11.4611	5.11066	-9.20624
 112	1	6	-0.0165	11.6328	3.87404	-10.1779
 113	1	5	0.0979	11.286	4.23165	-11.6034
 114	1	4	0.0384	10.8952	5.73709	-11.4725
 115	1	4	0.0384	10.9335	6.15973	-10.1463
 116	1	3	-0.125	10.2981	7.37089	-9.77989
 117	1	2	0.1778	9.85696	8.22585	-10.7484
 118	1	2	0.1778	9.97825	7.88972	-12.0665
 119	1	3	-0.125	10.4322	6.62728	-12.4734
 120	1	1	-0.2191	9.39872	8.66477	-13.0178
 121	1	1	-0.2191	9.20261	9.41113	-10.3779
 122	1	7	0	12.6852	3.99716	-12.3035
 123	1	7	0	10.1681	3.30404	-12.2624
 124	1	2	0.1723	8.54755	10.2012	-11.3479
 125	1	2	0.1723	8.72048	9.8503	-12.7326
 126	1	4	-0.123	8.24292	10.6878	-13.7296
 127	1	9	0.3137	8.54444	10.3763	-15.0772
 128	1	10	-0.41	8.72114	10.1538	-16.1951
 129	1	1	-0.2191	15.6834	7.87683	-6.63434
 130	1	2	0.1778	14.8661	6.65634	-8.55794
 131	1	1	-0.2191	15.9883	7.13209	-9.25551
 132	1	3	-0.125	13.9348	5.87284	-9.22835
 133	1	2	0.1723	7.65256	11.9168	-13.4105
 134	1	2	0.1723	7.54338	12.3075	-12.0945
 135	1	4	-0.123	7.90861	11.4472	-11.0265
 136	1	9	0.3137	8.04605	12.006	-9.7209
 137	1	10	-0.41	8.16676	12.4759	-8.70805
 138	1	2	0.1778	14.6901	6.9744	-7.19743
 139	1	3	-0.125	13.5616	6.58305	-6.49532
 140	1	7	0	11.3417	4.46126	-5.56005
 141	3	4	0.0384	14.3985	10.9971	17.4436
 142	3	4	0.0384	13.8682	10.2771	18.497
 143	3	5	0.0979	12.9652	11.1562	19.316
 144	3	6	-0.0165	12.9047	12.476	18.5071
 145	3	7	0	13.4798	11.3379	20.7243
 146	3	5	0.0979	13.8923	12.4363	17.3271
 147	3	6	-0.0165	13.0376	12.8628	16.0605
 148	3	5	0.0979	13.8379	13.9417	15.2543
 149	3	4	0.0384	15.1295	14.1619	16.1133
 150	3	4	0.0384	14.9652	13.4867	17.3335
 151	3	3	-0.125	15.9469	13.3712	18.3069
 152	3	2	0.1778	17.1855	13.8784	17.9919
 153	3	2	0.1778	17.4327	14.4732	16.7768
 154	3	3	-0.125	16.3932	14.6706	15.7813
 155	3	1	-0.2191	18.7776	14.7382	16.4646
 156	3	1	-0.2191	18.2514	13.4918	18.8138
 157	3	7	0	13.9484	13.5179	13.7961
 158	3	7	0	13.0647	15.2434	15.2558
 159	3	2	0.1723	19.5677	13.8663	18.6141
 160	3	2	0.1723	19.8468	14.4552	17.3614
 161	3	4	-0.123	21.1415	14.8017	17.0273
 162	3	9	0.3137	21.3077	15.4273	15.7624
 163	3	10	-0.41	21.5353	15.9339	14.7781
 164	3	1	-0.2191	16.0976	7.37006	18.5355
 165	3	2	0.1778	15.9031	9.14946	16.9163
 166	3	1	-0.2191	17.1276	8.71128	16.3138
 167	3	3	-0.125	15.4509	10.4738	16.6731
 168	3	2	0.1723	22.1074	14.72	18.0461
 169	3	2	0.1723	21.8168	14.1633	19.2672
 170	3	4	-0.123	20.5219	13.703	19.5501
 171	3	9	0.3137	20.1801	12.9945	20.782
 172	3	10	-0.41	19.8351	12.5638	21.7505
 173	3	2	0.1778	15.3046	8.39958	17.981
 174	3	3	-0.125	14.2616	8.93456	18.7915
 175	3	7	0	11.5123	10.6334	19.45
 176	5	4	0.0384	-12.8646	11.0377	10.6314
 177	5	4	0.0384	-12.0543	10.3543	11.5735
 178	5	5	0.0979	-12.676	9.07535	12.071
 179	5	6	-0.0165	-13.895	8.93274	11.2108
 180	5	7	0	-13.1062	9.23935	13.5232
 181	5	5	0.0979	-14.1176	10.1742	10.3132
 182	5	6	-0.0165	-14.2212	9.7579	8.8189
 183	5	5	0.0979	-15.4442	10.4909	8.18687
 184	5	4	0.0384	-16.0389	11.1501	9.38345
 185	5	4	0.0384	-15.3487	10.9817	10.574
 186	5	3	-0.125	-15.8454	11.3873	11.8566
 187	5	2	0.1778	-16.888	12.3094	11.7827
 188	5	2	0.1778	-17.4696	12.7699	10.5308
 189	5	3	-0.125	-17.1198	12.0525	9.37374
 190	5	1	-0.2191	-18.4408	13.7914	10.5752
 191	5	1	-0.2191	-17.3885	12.754	12.9491
 192	5	7	0	-14.8157	11.4628	7.09596
 193	5	7	0	-16.4026	9.54685	7.5101
 194	5	2	0.1723	-18.2925	13.8155	13.0007
 195	5	2	0.1723	-18.7988	14.37	11.8142
 196	5	4	-0.123	-19.8175	15.3303	11.8424
 197	5	9	0.3137	-20.5188	15.7787	10.6989
 198	5	10	-0.41	-21.17	16.0582	9.82502
 199	5	1	-0.2191	-9.19173	12.73	11.7092
 200	5	2	0.1778	-11.2906	12.8849	10.5412
 201	5	1	-0.2191	-10.885	14.161	10.0474
 202	5	3	-0.125	-12.539	12.3639	10.2173
 203	5	8	0.1723	-20.1478	15.9402	13.1265
 204	5	8	0.1723	-19.4608	15.4858	14.2697
 205	5	4	-0.123	-18.5103	14.4896	14.2176
 206	5	9	0.3137	-17.8922	14.1342	15.4515
 207	5	10	-0.41	-17.362	13.9373	16.4105
 208	5	2	0.1778	-10.4184	12.1674	11.4413
 209	5	3	-0.125	-10.8358	10.8924	11.9338
 210	5	7	0	-11.7216	7.85745	11.8687
 211	1	4	0.0384	-4.43996	-16.1582	-13.4663
 212	1	4	0.0384	-3.57882	-15.6968	-12.4694
 213	1	5	0.0979	-2.08853	-15.5382	-12.8971
 214	1	6	-0.0165	-2.20776	-15.8052	-14.4177
 215	1	7	0	-1.09756	-16.5695	-12.2367
 216	1	5	0.0979	-3.66825	-16.2593	-14.8208
 217	1	6	-0.0165	-4.30931	-15.4496	-15.9772
 218	1	5	0.0979	-4.78251	-16.4219	-17.0927
 219	1	4	0.0384	-4.36108	-17.7694	-16.5535
 220	1	4	0.0384	-3.775	-17.7286	-15.2815
 221	1	3	-0.125	-3.3506	-18.8779	-14.6701
 222	1	2	0.1778	-3.44341	-20.1078	-15.3063
 223	1	2	0.1778	-4.0829	-20.1637	-16.5526
 224	1	3	-0.125	-4.44902	-19.0014	-17.2056
 225	1	1	-0.2191	-4.40271	-21.4006	-17.105
 226	1	1	-0.2191	-3.12869	-21.2999	-14.6707
 227	1	7	0	-6.29079	-16.3266	-17.3973
 228	1	7	0	-3.97036	-16.0078	-18.4205
 229	1	2	0.1723	-3.54578	22.3316	-15.2913
 230	1	2	0.1723	-4.45391	22.3256	-16.4115
 231	1	4	-0.123	-5.06854	21.1373	-16.8952
 232	1	9	0.3137	-5.74837	21.0537	-18.1775
 233	1	10	-0.41	-6.28379	21.0085	-19.1799
 234	1	1	-0.2191	-6.11346	-15.288	-9.77917
 235	1	2	0.1778	-6.3658	-16.0873	-12.035
 236	1	1	-0.2191	-7.75665	-16.1522	-11.8557
 237	1	3	-0.125	-5.83332	-16.3557	-13.2668
 238	1	2	0.1723	-4.91204	19.9671	-16.0886
 239	1	2	0.1723	-4.13001	19.9854	-14.9385
 240	1	4	-0.123	-3.42443	21.1844	-14.5431
 241	1	9	0.3137	-2.48104	21.2034	-13.449
 242	1	10	-0.41	-1.86151	21.1854	-12.5228
 243	1	2	0.1778	-5.52162	-15.5905	-10.9968
 244	1	3	-0.125	-4.16079	-15.5283	-11.181
 245	1	7	0	-1.50946	-14.1358	-12.7237
 246	2	4	0.0384	2.90274	15.5358	16.4747
 247	2	4	0.0384	3.39544	16.3385	17.5061
 248	2	5	0.0979	4.63651	17.0398	17.1184
 249	2	6	-0.0165	4.92214	16.52	15.655
 250	2	7	0	5.94111	16.8212	17.9806
 251	2	5	0.0979	3.93152	15.33	15.3532
 252	2	6	-0.0165	3.38531	15.4714	13.9142
 253	2	5	0.0979	3.8913	14.2735	13.0168
 254	2	4	0.0384	4.68621	13.4672	14.0735
 255	2	4	0.0384	4.71904	13.9675	15.3221
 256	2	3	-0.125	5.23599	13.3031	16.4546
 257	2	2	0.1778	5.671	12.0039	16.2054
 258	2	2	0.1778	5.68149	11.4683	14.8656
 259	2	3	-0.125	5.16136	12.1708	13.7813
 260	2	1	-0.2191	6.53657	10.3589	14.7402
 261	2	1	-0.2191	6.0543	11.2258	17.3103
 262	2	7	0	2.75465	13.4692	12.4019
 263	2	7	0	4.84062	14.8071	11.9873
 264	2	2	0.1723	6.88744	10.1113	17.1267
 265	2	2	0.1723	7.16423	9.71278	15.796
 266	2	4	-0.123	7.9501	8.62254	15.5203
 267	2	9	0.3137	8.17341	8.25855	14.1945
 268	2	10	-0.41	8.23781	8.01959	13.0899
 269	2	1	-0.2191	1.89893	14.7303	20.3459
 270	2	2	0.1778	1.52979	14.3739	18.0395
 271	2	1	-0.2191	0.84161	13.2281	18.3469
 272	2	3	-0.125	1.79978	14.6871	16.6967
 273	2	2	0.1723	8.61424	8.06479	16.5749
 274	2	2	0.1723	8.39762	8.48553	17.9216
 275	2	4	-0.123	7.47808	9.49241	18.2107
 276	2	9	0.3137	7.34238	9.86888	19.6576
 277	2	10	-0.41	7.33436	10.223	20.7327
 278	2	2	0.1778	2.11573	15.1039	19.0781
 279	2	3	-0.125	3.04304	16.0801	18.83
 280	2	7	0	4.44207	18.5594	16.9134
 281	1	4	0.0384	-5.25723	6.28973	-14.0117
 282	1	4	0.0384	-6.15901	7.16349	-14.6484
 283	1	5	0.0979	-5.75182	7.64645	-15.9664
 284	1	6	-0.0165	-4.54866	6.69985	-16.2854
 285	1	7	0	-5.20678	9.09792	-15.9456
 286	1	5	0.0979	-4.16528	5.8571	-14.9921
 287	1	6	-0.0165	-4.30192	4.29647	-15.3308
 288	1	5	0.0979	-2.87359	3.69077	-15.3569
 289	1	4	0.0384	-2.00175	4.84244	-14.7949
 290	1	4	0.0384	-2.68046	6.0122	-14.5602
 291	1	3	-0.125	-2.14024	7.04787	-13.8581
 292	1	2	0.1778	-0.88682	6.8572	-13.2488
 293	1	2	0.1778	-0.259309	5.53151	-13.2514
 294	1	3	-0.125	-0.78707	4.57161	-14.1572
 295	1	1	-0.2191	0.896197	5.34054	-12.4852
 296	1	1	-0.2191	-0.303367	7.80051	-12.4315
 297	1	7	0	-3.04552	2.47329	-14.3983
 298	1	7	0	-2.46513	3.14898	-16.7617
 299	1	2	0.1723	0.690391	7.56149	-11.4939
 300	1	2	0.1723	1.28048	6.26493	-11.4754
 301	1	4	-0.123	2.14035	5.94203	-10.3974
 302	1	9	0.3137	2.73355	4.5727	-10.2751
 303	1	10	-0.41	3.18657	3.54426	-10.3394
 304	1	1	-0.2191	-8.58559	7.62907	-11.8482
 305	1	2	0.1778	-6.50865	6.42866	-11.9261
 306	1	1	-0.2191	-6.74408	6.00784	-10.6014
 307	1	3	-0.125	-5.41985	5.87333	-12.6374
 308	1	2	0.1723	2.71578	6.94888	-9.62711
 309	1	2	0.1723	2.17644	8.28868	-9.70289
 310	1	4	-0.123	1.23776	8.58862	-10.634
 311	1	9	0.3137	0.757946	9.93433	-10.7525
 312	1	10	-0.41	0.368321	10.9973	-10.8589
 313	1	2	0.1778	-7.41962	7.28648	-12.5514
 314	1	3	-0.125	-7.21476	7.71385	-13.8671
 315	1	7	0	-6.89304	7.53304	-17.0411
 316	1	4	0.0384	-6.27673	12.2422	1.74733
 317	1	4	0.0384	-5.57873	13.451	1.51386
 318	1	5	0.0979	-6.15981	14.1888	0.32696
 319	1	6	-0.0165	-7.13628	13.0789	-0.303849
 320	1	7	0	-5.15684	14.5982	-0.809719
 321	1	5	0.0979	-7.26928	11.8571	0.632933
 322	1	6	-0.0165	-8.74345	11.7703	1.059
 323	1	5	0.0979	-9.48134	10.4737	0.524049
 324	1	4	0.0384	-8.22509	9.70631	-0.024184
 325	1	4	0.0384	-7.05907	10.4672	-0.102989
 326	1	3	-0.125	-5.87656	9.96247	-0.601489
 327	1	2	0.1778	-5.87062	8.78599	-1.34052
 328	1	2	0.1778	-7.07407	8.04406	-1.42024
 329	1	3	-0.125	-8.2321	8.52538	-0.779327
 330	1	1	-0.2191	-7.10797	6.89259	-2.22842
 331	1	1	-0.2191	-4.68323	8.29374	-1.91986
 332	1	7	0	-10.2176	9.85942	1.71789
 333	1	7	0	-10.5145	10.8238	-0.555201
 334	1	2	0.1723	-4.78298	7.28322	-2.86872
 335	1	2	0.1723	-5.95506	6.521	-2.86961
 336	1	4	-0.123	-6.09503	5.49207	-3.76579
 337	1	9	0.3137	-7.31402	4.67991	-3.79184
 338	1	10	-0.41	-8.20933	4.06989	-3.82281
 339	1	1	-0.2191	-3.2686	13.4884	4.37526
 340	1	2	0.1778	-5.14749	12.0631	3.83965
 341	1	1	-0.2191	-4.66567	11.2599	4.87422
 342	1	3	-0.125	-6.112	11.578	2.92808
 343	1	8	0.1723	-5.1276	5.2719	-4.75929
 344	1	8	0.1723	-3.89395	5.99884	-4.62286
 345	1	4	-0.123	-3.71722	7.00406	-3.69365
 346	1	9	0.3137	-2.49314	7.69469	-3.44363
 347	1	10	-0.41	-1.50562	8.18507	-3.23733
 348	1	2	0.1778	-4.35436	13.205	3.53923
 349	1	3	-0.125	-4.46735	13.8844	2.29356
 350	1	7	0	-6.91137	15.5004	0.64625
 351	1	4	0.0384	-16.1042	-22.3042	14.7978
 352	1	4	0.0384	-17.4385	22.2659	14.5624
 353	1	5	0.0979	-17.7346	22.1319	13.0727
 354	1	6	-0.0165	-16.4069	-22.3715	12.4536
 355	1	7	0	-18.8329	-21.7689	12.6018
 356	1	5	0.0979	-15.3614	-21.9807	13.4941
 357	1	6	-0.0165	-14.0564	22.0967	13.3432
 358	1	5	0.0979	-12.94	-21.887	12.801
 359	1	4	0.0384	-13.545	-20.5129	12.9015
 360	1	4	0.0384	-14.8571	-20.5351	13.3108
 361	1	3	-0.125	-15.6899	-19.4154	13.5471
 362	1	2	0.1778	-15.0682	-18.1809	13.3019
 363	1	2	0.1778	-13.7351	-18.1363	12.7453
 364	1	3	-0.125	-12.9672	-19.2844	12.5387
 365	1	1	-0.2191	-13.1228	-16.9116	12.5352
 366	1	1	-0.2191	-15.6354	-16.9769	13.6243
 367	1	7	0	-11.7916	-22.0271	13.7875
 368	1	7	0	-12.4231	-22.3063	11.4229
 369	1	2	0.1723	-15.0314	-15.736	13.3859
 370	1	2	0.1723	-13.6688	-15.6942	12.8834
 371	1	4	-0.123	-12.9986	-14.4544	12.6606
 372	1	9	0.3137	-11.6951	-14.328	12.1064
 373	1	10	-0.41	-10.5846	-14.2514	11.8783
 374	1	1	-0.2191	-18.5233	21.8616	18.1623
 375	1	2	0.1778	-16.4643	-22.2583	17.1905
 376	1	1	-0.2191	-15.9865	-22.0455	18.4765
 377	1	3	-0.125	-15.6051	-22.0159	16.1198
 378	1	2	0.1723	-13.7296	-13.2906	12.9552
 379	1	2	0.1723	-14.985	-13.3205	13.5777
 380	1	4	-0.123	-15.6455	-14.5381	13.725
 381	1	9	0.3137	-16.9614	-14.5135	14.3319
 382	1	10	-0.41	-17.994	-14.5253	14.777
 383	1	2	0.1778	-17.8001	22.0962	17.019
 384	1	3	-0.125	-18.282	21.9619	15.6886
 385	1	7	0	-18.1729	20.7158	12.6331
 386	3	4	0.0384	5.57864	-6.89297	-15.1885
 387	3	4	0.0384	5.1383	-6.15741	-14.1086
 388	3	5	0.0979	3.69693	-6.46986	-13.8098
 389	3	6	-0.0165	3.13525	-7.3649	-14.9628
 390	3	7	0	2.70133	-5.24775	-13.8857
 391	3	5	0.0979	4.40972	-7.70868	-15.8386
 392	3	6	-0.0165	4.6906	-9.30814	-15.7103
 393	3	5	0.0979	4.74903	-9.89175	-17.1407
 394	3	4	0.0384	4.43298	-8.7314	-18.0547
 395	3	4	0.0384	4.31598	-7.5341	-17.3769
 396	3	3	-0.125	4.14993	-6.30069	-18.0209
 397	3	2	0.1778	4.27559	-6.29427	-19.4061
 398	3	2	0.1778	4.44107	-7.4779	-20.1747
 399	3	3	-0.125	4.42812	-8.72788	-19.4433
 400	3	1	-0.2191	4.59416	-7.41608	-21.5537
 401	3	1	-0.2191	4.21475	-5.05984	-20.1474
 402	3	7	0	6.17675	-10.4898	-17.4494
 403	3	7	0	3.79228	-11.0606	-17.2531
 404	3	2	0.1723	4.64718	-4.95697	-21.4395
 405	3	2	0.1723	4.7912	-6.11659	-22.1832
 406	3	4	-0.123	5.105	-6.09696	21.2989
 407	3	9	0.3137	5.41296	-7.36545	20.6368
 408	3	10	-0.41	5.72766	-8.30888	20.0113
 409	3	1	-0.2191	8.37271	-4.6533	-12.9012
 410	3	2	0.1778	7.793	-5.91683	-14.9418
 411	3	1	-0.2191	9.12801	-5.63073	-15.397
 412	3	3	-0.125	6.87596	-6.68904	-15.7255
 413	3	2	0.1723	5.29675	-4.87027	20.7042
 414	3	2	0.1723	5.08416	-3.69799	21.4349
 415	3	4	-0.123	4.68263	-3.72403	-22.0628
 416	3	9	0.3137	4.35092	-2.54153	-21.4459
 417	3	10	-0.41	4.13527	-1.48439	-21.0874
 418	3	2	0.1778	7.39882	-5.32515	-13.6905
 419	3	3	-0.125	6.0212	-5.44077	-13.307
 420	3	7	0	3.47255	-7.10491	-12.4762
 421	1	4	0.0384	-8.40985	-5.10611	-1.18654
 422	1	4	0.0384	-7.67088	-4.81631	-2.32887
 423	1	5	0.0979	-7.78771	-3.37272	-2.66873
 424	1	6	-0.0165	-8.49688	-2.74645	-1.4529
 425	1	7	0	-8.70835	-3.16879	-3.93188
 426	1	5	0.0979	-9.13921	-3.94023	-0.64731
 427	1	6	-0.0165	-8.92828	-3.68275	0.937477
 428	1	5	0.0979	-10.2841	-3.66452	1.73285
 429	1	4	0.0384	-11.2947	-3.79941	0.606933
 430	1	4	0.0384	-10.6702	-4.01145	-0.65769
 431	1	3	-0.125	-11.4449	-4.20639	-1.84445
 432	1	2	0.1778	-12.8525	-3.88956	-1.78344
 433	1	2	0.1778	-13.4932	-3.66265	-0.552318
 434	1	3	-0.125	-12.739	-3.69531	0.679447
 435	1	1	-0.2191	-14.8623	-3.50423	-0.486362
 436	1	1	-0.2191	-13.6446	-4.25226	-2.83291
 437	1	7	0	-10.2784	-4.81329	2.69833
 438	1	7	0	-10.4419	-2.35891	2.58038
 439	1	2	0.1723	-15.0053	-3.96229	-2.83338
 440	1	2	0.1723	-15.6206	-3.6223	-1.62694
 441	1	4	-0.123	-17.022	-3.55936	-1.51338
 442	1	9	0.3137	-17.5868	-3.21821	-0.245599
 443	1	10	-0.41	-18.0392	-2.90996	0.769258
 444	1	1	-0.2191	-6.77582	-8.22211	-3.37059
 445	1	2	0.1778	-7.8818	-7.45691	-1.42473
 446	1	1	-0.2191	-7.96084	-8.75227	-0.919074
 447	1	3	-0.125	-8.49648	-6.43719	-0.721941
 448	1	2	0.1723	-17.7915	-3.78957	-2.68677
 449	1	2	0.1723	-17.1743	-4.14488	-3.89436
 450	1	4	-0.123	-15.7863	-4.23363	-4.00513
 451	1	9	0.3137	-15.1369	-4.53487	-5.27597
 452	1	10	-0.41	-14.6868	-4.71829	-6.28824
 453	1	2	0.1778	-7.22222	-7.14512	-2.6354
 454	1	3	-0.125	-6.97195	-5.82778	-3.04467
 455	1	7	0	-6.30752	-2.68577	-2.96503
 456	2	4	0.0384	21.0319	20.5471	2.91434
 457	2	4	0.0384	21.8099	19.3504	2.90388
 458	2	5	0.0979	20.9977	18.1201	2.94145
 459	2	6	-0.0165	19.5696	18.6677	3.08893
 460	2	7	0	21.2861	17.2001	4.09599
 461	2	5	0.0979	19.513	20.2316	2.89017
 462	2	6	-0.0165	18.7283	20.4677	1.46442
 463	2	5	0.0979	17.6126	21.5477	1.62394
 464	2	4	0.0384	17.6096	21.839	3.16901
 465	2	4	0.0384	18.6327	21.0554	3.84511
 466	2	3	-0.125	18.727	21.0122	5.2925
 467	2	2	0.1778	17.8583	21.8592	6.00627
 468	2	2	0.1778	16.8616	-22.1832	5.35365
 469	2	3	-0.125	16.6766	-22.2788	3.96371
 470	2	1	-0.2191	16.0105	-21.4114	6.11324
 471	2	1	-0.2191	17.9215	21.9745	7.45085
 472	2	7	0	18.0183	-22.1605	0.774853
 473	2	7	0	16.2507	20.9081	1.2294
 474	2	2	0.1723	17.2148	-21.9489	8.12673
 475	2	2	0.1723	16.1833	-21.2042	7.42201
 476	2	4	-0.123	15.4225	-20.2243	8.16585
 477	2	9	0.3137	14.6034	-19.2946	7.50792
 478	2	10	-0.41	13.936	-18.4619	7.04626
 479	2	11	-0.2191	-19.8271	20.6531	4.02073
 480	2	2	0.1778	-21.8586	21.7938	3.55004
 481	2	11	-0.2191	-21.107	-21.9264	3.7678
 482	2	3	-0.125	21.6824	21.7635	3.22402
 483	2	2	0.1723	15.6993	-20.0031	9.5147
 484	2	2	0.1723	16.7233	-20.7119	10.1373
 485	2	4	-0.123	17.5376	-21.6201	9.47394
 486	2	9	0.3137	18.5916	-22.1503	10.2785
 487	2	10	-0.41	19.5082	22.4205	10.9084
 488	2	2	0.1778	-21.1276	20.5566	3.56067
 489	2	3	-0.125	-21.6815	19.3312	3.23053
 490	2	7	0	21.2486	17.3128	1.61476
 491	2	4	0.0384	13.608	15.5914	3.74401
 492	2	4	0.0384	14.3677	15.7154	2.60451
 493	2	5	0.0979	15.8625	15.5406	2.91369
 494	2	6	-0.0165	15.8768	15.2353	4.4164
 495	2	7	0	16.6539	16.8462	2.59136
 496	2	5	0.0979	14.4658	15.3194	5.0105
 497	2	6	-0.0165	14.1557	14.0644	5.945
 498	2	5	0.0979	14.0691	14.4035	7.49051
 499	2	4	0.0384	14.1777	15.9506	7.43163
 500	2	4	0.0384	14.3628	16.4253	6.11902
 501	2	3	-0.125	14.2867	17.8233	5.91829
 502	2	2	0.1778	13.8775	18.6143	6.99323
 503	2	2	0.1778	13.6989	18.1211	8.23081
 504	2	3	-0.125	13.8281	16.7884	8.50015
 505	2	1	-0.2191	13.2903	19.0411	9.23854
 506	2	1	-0.2191	13.5257	19.9467	6.77115
 507	2	7	0	12.783	13.7983	8.09412
 508	2	7	0	15.2553	13.8196	8.25598
 509	2	2	0.1723	12.7112	20.6544	7.6206
 510	2	2	0.1723	12.5493	20.1329	8.91034
 511	2	4	-0.123	11.5585	20.7551	9.70074
 512	2	9	0.3137	11.3378	20.2387	11.0374
 513	2	10	-0.41	11.0556	19.7314	12.0001
 514	2	1	-0.2191	11.7482	16.7643	0.224549
 515	2	2	0.1778	11.5546	16.1457	2.55569
 516	2	1	-0.2191	10.2032	16.5662	2.53481
 517	2	3	-0.125	12.2251	15.8294	3.73771
 518	2	2	0.1723	10.7508	21.8257	9.24514
 519	2	2	0.1723	10.9688	22.2923	7.96312
 520	2	4	-0.123	12.0064	21.7621	7.21889
 521	2	9	0.3137	12.1887	22.2544	5.91884
 522	2	10	-0.41	12.3626	-22.1061	4.93792
 523	2	2	0.1778	12.3777	16.3462	1.39168
 524	2	3	-0.125	13.754	16.0667	1.42737
 525	2	7	0	16.5688	14.3367	2.29164
 526	3	4	0.0384	2.36999	-17.9308	1.15946
 527	3	4	0.0384	3.34595	-18.0812	0.119262
 528	3	5	0.0979	3.23815	-19.4226	-0.634447
 529	3	6	-0.0165	2.16317	-20.1705	0.268689
 530	3	7	0	4.57007	-20.2319	-0.611383
 531	3	5	0.0979	1.65928	-19.271	1.45872
 532	3	6	-0.0165	0.137338	-19.2655	1.26226
 533	3	5	0.0979	-0.599294	-19.9881	2.4662
 534	3	4	0.0384	0.594265	-20.3268	3.33023
 535	3	4	0.0384	1.79267	-19.9108	2.79448
 536	3	3	-0.125	3.04346	-20.1086	3.49469
 537	3	2	0.1778	2.99339	-20.92	4.64306
 538	3	2	0.1778	1.7373	-21.1487	5.25293
 539	3	3	-0.125	0.508237	-20.8505	4.5934
 540	3	1	-0.2191	1.73498	-21.766	6.41334
 541	3	1	-0.2191	4.1164	-21.334	5.28238
 542	3	7	0	-1.62565	-19.1539	3.21186
 543	3	7	0	-1.38909	-21.2474	2.00882
 544	3	2	0.1723	4.05414	-22.3302	6.2957
 545	3	2	0.1723	2.79077	22.319	6.80796
 546	3	4	-0.123	2.54166	21.2017	7.58873
 547	3	9	0.3137	1.21015	20.9049	8.0048
 548	3	10	-0.41	0.139188	20.7261	8.38045
 549	3	1	-0.2191	5.16335	-14.9278	0.580648
 550	3	2	0.1778	3.26893	-15.8138	1.762
 551	3	1	-0.2191	3.28157	-14.6922	2.50479
 552	3	3	-0.125	2.2839	-16.7809	1.94966
 553	3	2	0.1723	3.53245	20.2733	7.79139
 554	3	2	0.1723	4.8085	20.4364	7.17388
 555	3	4	-0.123	5.14435	21.6184	6.41449
 556	3	9	0.3137	6.43815	21.8942	5.91269
 557	3	10	-0.41	7.49345	22.0528	5.50866
 558	3	2	0.1778	4.28619	-15.9623	0.781734
 559	3	3	-0.125	4.33965	-17.0948	-0.0224988
 560	3	7	0	2.70346	-19.2214	-2.08757
 561	2	4	0.0384	18.2547	-17.0352	6.08768
 562	2	4	0.0384	17.9727	-17.145	4.76553
 563	2	5	0.0979	19.0785	-17.8496	3.99685
 564	2	6	-0.0165	20.1668	-18.1167	5.04144
 565	2	7	0	19.7692	-16.8313	2.99114
 566	2	5	0.0979	19.6144	-17.6279	6.47345
 567	2	6	-0.0165	19.4954	-18.7188	7.57086
 568	2	5	0.0979	20.3	-18.2701	8.82082
 569	2	4	0.0384	20.8808	-16.879	8.44317
 570	2	4	0.0384	20.6038	-16.6293	7.09521
 571	2	3	-0.125	21.3252	-15.6318	6.34174
 572	2	2	0.1778	22.1434	-14.7903	7.12276
 573	2	2	0.1778	22.2859	-14.9276	8.54435
 574	2	3	-0.125	21.8021	-16.0863	9.14182
 575	2	1	-0.2191	-21.8371	-13.9899	9.23939
 576	2	1	-0.2191	-21.9047	-13.8413	6.45236
 577	2	7	0	19.3157	-18.1432	10.0469
 578	2	7	0	21.3395	-19.2911	9.16318
 579	2	2	0.1723	-21.071	-13.0386	7.16643
 580	2	2	0.1723	-21.0761	-13.0093	8.58053
 581	2	4	-0.123	-20.323	-12.1398	9.325
 582	2	9	0.3137	-20.1724	-12.2825	10.7294
 583	2	10	-0.41	-20.0745	-12.3411	11.9013
 584	2	1	-0.2191	14.6135	-15.6486	4.72924
 585	2	2	0.1778	16.1745	-15.8936	6.56668
 586	2	1	-0.2191	15.1458	-15.5574	7.44697
 587	2	3	-0.125	17.3848	-16.4284	7.06796
 588	2	2	0.1723	-19.5688	-11.1788	8.66237
 589	2	2	0.1723	-19.446	-11.2467	7.25837
 590	2	4	-0.123	-20.2356	-12.1199	6.50509
 591	2	9	0.3137	-20.2483	-11.9773	5.11364
 592	2	10	-0.41	-20.1659	-11.7817	4.00084
 593	2	2	0.1778	15.8583	-16.0136	5.17987
 594	2	3	-0.125	16.7458	-16.6208	4.28596
 595	2	7	0	18.6788	-19.1377	3.25935
 596	3	4	0.0384	5.57466	15.8788	7.0596
 597	3	4	0.0384	4.32384	15.6375	7.63312
 598	3	5	0.0979	3.9172	14.1768	7.46795
 599	3	6	-0.0165	5.12848	13.5254	6.7326
 600	3	7	0	2.76442	14.0796	6.38057
 601	3	5	0.0979	6.11547	14.5786	6.36432
 602	3	6	-0.0165	7.57524	14.2044	6.80972
 603	3	5	0.0979	8.61881	14.1777	5.63021
 604	3	4	0.0384	7.69658	14.2871	4.401
 605	3	4	0.0384	6.42627	14.5787	4.80432
 606	3	3	-0.125	5.48686	14.8304	3.77493
 607	3	2	0.1778	5.90065	14.7546	2.45635
 608	3	2	0.1778	7.1539	14.3699	2.08093
 609	3	3	-0.125	8.11772	14.221	3.05036
 610	3	1	-0.2191	7.4755	14.5221	0.761322
 611	3	1	-0.2191	4.94276	15.0338	1.53728
 612	3	7	0	9.52257	15.4295	5.92904
 613	3	7	0	9.38455	12.8297	5.74547
 614	3	2	0.1723	5.16787	15.0886	0.1729
 615	3	2	0.1723	6.46623	14.7656	-0.220315
 616	3	4	-0.123	6.77424	14.6357	-1.56069
 617	3	9	0.3137	8.08842	14.3525	-2.04544
 618	3	10	-0.41	9.04852	14.0443	-2.506
 619	3	1	-0.2191	3.22362	19.0426	8.32834
 620	3	2	0.1778	5.3752	18.19	7.6572
 621	3	1	-0.2191	5.77148	19.4862	7.36879
 622	3	3	-0.125	6.14146	17.1408	7.17013
 623	3	2	0.1723	5.72073	14.808	-2.44919
 624	3	2	0.1723	4.41264	15.1757	-2.0772
 625	3	4	-0.123	4.15907	15.3712	-0.718147
 626	3	9	0.3137	2.80234	15.7243	-0.203587
 627	3	10	-0.41	1.73427	15.9762	0.116102
 628	3	2	0.1778	4.07787	17.9362	8.22502
 629	3	3	-0.125	3.59083	16.6447	8.2068
 630	3	7	0	3.6407	13.417	8.76314
 631	1	4	0.0384	4.91398	-19.2017	21.0624
 632	1	4	0.0384	4.92913	-18.6763	22.3863
 633	1	5	0.0979	5.70426	-19.5714	-21.5026
 634	1	6	-0.0165	5.89313	-20.8924	-22.2938
 635	1	7	0	4.92271	-19.8652	-20.2364
 636	1	5	0.0979	5.39907	-20.6591	21.0706
 637	1	6	-0.0165	6.68503	-20.8652	20.1255
 638	1	5	0.0979	6.31542	-21.8638	19.046
 639	1	4	0.0384	4.85258	-22.2173	19.3426
 640	1	4	0.0384	4.4597	-21.7162	20.5787
 641	1	3	-0.125	3.07581	-21.8336	21.0425
 642	1	2	0.1778	2.27625	22.1242	20.3819
 643	1	2	0.1778	2.76489	21.4854	19.1955
 644	1	3	-0.125	4.05037	21.7442	18.6301
 645	1	1	-0.2191	1.94759	20.6043	18.5314
 646	1	1	-0.2191	1.01009	21.9896	20.7847
 647	1	7	0	6.58854	-21.2166	17.6301
 648	1	7	0	7.34168	21.7774	19.2788
 649	1	2	0.1723	0.113425	21.3386	19.9629
 650	1	2	0.1723	0.616584	20.552	18.9041
 651	1	4	-0.123	-0.317388	19.8092	18.2046
 652	1	9	0.3137	0.0600561	19.0926	17.0102
 653	1	10	-0.41	0.409088	18.5089	16.1049
 654	1	1	-0.2191	3.38804	-15.375	21.8197