pySIMM System Object

9 atoms
6 bonds
3 angles
0 dihedrals
0 impropers

2 atom types
1 bond types
1 angle types
0 dihedral types

-22.432100 22.432100 xlo xhi
-22.432100 22.432100 ylo yhi
-22.432100 22.432100 zlo zhi

Masses

  1	16.0	# O
  2	12.01	# C

Pair Coeffs

  1	0.15699	3.05	# O
  2	0.05365	2.8	# C

Bond Coeffs

  1	500.0	1.16	# O,C

Angle Coeffs

  1	200.0	180.0	# O,C,O

Atoms

   1	6	2	0.7	6.10536	-11.1345	-21.9907
   2	6	1	-0.35	6.89273	-11.913	-21.6449
   3	6	1	-0.35	5.31798	-10.356	22.5276
   4	7	2	0.7	7.27887	-21.8176	-15.9342
   5	7	1	-0.35	7.33482	-20.6603	-15.9897
   6	7	1	-0.35	7.22293	21.8892	-15.8788
   7	8	2	0.7	-22.3748	3.08914	-5.58384
   8	8	1	-0.35	22.2344	3.32069	-6.69152
   9	8	1	-0.35	-22.1198	2.85759	-4.47615

Bonds

   1	1	1	2
   2	1	1	3
   3	1	4	5
   4	1	4	6
   5	1	7	8
   6	1	7	9

Angles

   1	1	2	1	3
   2	1	5	4	6
   3	1	8	7	9

