pySIMM System Object

9 atoms
6 bonds
3 angles
0 dihedrals
0 impropers

13 atom types
15 bond types
26 angle types
38 dihedral types

-22.432100 22.432100 xlo xhi
-22.432100 22.432100 ylo yhi
-22.432100 22.432100 zlo zhi

Masses

   1	15.9994	# OA0
   2	12.011	# CS0
   3	13.01894	# CA1
   4	12.011	# CA0
   5	12.011	# CH0
   6	14.02688	# CH2
   7	15.03482	# CH3
   8	12.011	# LCS0
   9	12.011	# CL0
  10	14.00674	# NL0
  11	15.9994	# LOA0
  12	16.0	# O
  13	12.01	# C

Pair Coeffs

   1	0.139104	2.599999	# OA0
   2	0.059616	3.7	# CS0
   3	0.100354	3.695002	# CA1
   4	0.041731	3.879998	# CA0
   5	0.000994	6.400003	# CH0
   6	0.091411	3.950004	# CH2
   7	0.194746	3.749998	# CH3
   8	0.059616	3.7	# LCS0
   9	0.119232	3.55	# CL0
  10	0.119232	2.949997	# NL0
  11	0.139104	2.599999	# LOA0
  12	0.15699	3.05	# O
  13	0.05365	2.8	# C

Bond Coeffs

   1	372.4	1.373	# CS0,OA0
   2	478.4	1.387	# CS0,CS0
   3	478.4	1.387	# CA0,CA1
   4	478.4	1.387	# CA0,CA0
   5	478.4	1.387	# CS0,CA1
   6	303.1	1.535	# CH2,CH0
   7	323.5	1.513	# CA0,CH0
   8	303.1	1.535	# CH0,CH3
   9	478.4	1.387	# LCS0,LCS0
  10	478.4	1.387	# CS0,CA0
  11	478.4	1.387	# LCS0,CA0
  12	404.1	1.44	# CA0,CL0
  13	1014.5	1.138	# CL0,NL0
  14	372.4	1.373	# CS0,LOA0
  15	500.0	1.16	# O,C

Angle Coeffs

   1	63.31	119.95	# CS0,OA0,CS0
   2	69.79	119.2	# OA0,CS0,CS0
   3	69.79	119.2	# OA0,CS0,CA1
   4	67.18	119.97	# CS0,CS0,CA1
   5	67.18	119.97	# CA0,CA1,CS0
   6	67.18	119.97	# CA1,CA0,CA0
   7	63.84	120.63	# CA1,CA0,CH0
   8	63.84	120.63	# CA0,CA0,CH0
   9	63.25	112.09	# CH2,CH0,CA0
  10	63.21	110.63	# CH2,CH0,CH3
  11	63.25	112.09	# CA0,CH0,CH3
  12	63.21	110.63	# CH3,CH0,CH3
  13	63.21	110.63	# CH0,CH2,CH0
  14	63.21	110.63	# CH2,CH0,CH2
  15	63.66	112.26	# CA0,CH0,CA0
  16	67.18	119.97	# LCS0,LCS0,CA0
  17	67.18	119.97	# CS0,CA0,LCS0
  18	65.86	120.0	# CS0,CA0,CL0
  19	65.86	120.0	# LCS0,CA0,CL0
  20	67.18	119.97	# CA0,CS0,CS0
  21	69.79	119.2	# CA0,CS0,OA0
  22	63.14	180.0	# CA0,CL0,NL0
  23	69.79	119.2	# LOA0,CS0,CS0
  24	69.79	119.2	# LOA0,CS0,CA1
  25	67.18	119.97	# CS0,CA0,CS0
  26	200.0	180.0	# O,C,O

Dihedral Coeffs

   1	0.900000	-1	2	# CS0,CS0,OA0,CS0
   2	0.900000	-1	2	# CA1,CS0,OA0,CS0
   3	3.625000	-1	2	# OA0,CS0,CS0,OA0
   4	3.625000	-1	2	# OA0,CS0,CS0,CA1
   5	3.625000	-1	2	# CA1,CS0,CS0,CA1
   6	3.625000	-1	2	# CA0,CA0,CA1,CS0
   7	3.625000	-1	2	# CH0,CA0,CA1,CS0
   8	3.625000	-1	2	# CA1,CA0,CA0,CA1
   9	3.625000	-1	2	# CA1,CA0,CA0,CH0
  10	3.625000	-1	2	# CH0,CA0,CA0,CH0
  11	3.625000	-1	2	# CS0,CS0,CA1,CA0
  12	3.625000	-1	2	# OA0,CS0,CA1,CA0
  13	0.155550	1	3	# CH0,CH2,CH0,CA0
  14	0.155550	1	3	# CH0,CH2,CH0,CH3
  15	0.000000	1	2	# CA0,CA0,CH0,CH2
  16	0.000000	1	2	# CA0,CA0,CH0,CH3
  17	0.000000	1	2	# CA1,CA0,CH0,CH2
  18	0.000000	1	2	# CA1,CA0,CH0,CH3
  19	0.155550	1	3	# CH0,CH2,CH0,CH2
  20	0.000000	1	2	# CA0,CA0,CH0,CA0
  21	0.000000	1	2	# CA1,CA0,CH0,CA0
  22	3.625000	-1	2	# CA0,LCS0,LCS0,CA0
  23	3.625000	-1	2	# CS0,CS0,CA0,LCS0
  24	3.625000	-1	2	# CS0,CS0,CA0,CL0
  25	3.625000	-1	2	# OA0,CS0,CA0,LCS0
  26	3.625000	-1	2	# OA0,CS0,CA0,CL0
  27	3.625000	-1	2	# CA0,CS0,CS0,CA0
  28	3.625000	-1	2	# CA0,CS0,CS0,OA0
  29	3.625000	-1	2	# LCS0,LCS0,CA0,CS0
  30	3.625000	-1	2	# LCS0,LCS0,CA0,CL0
  31	0.000000	-1	2	# CS0,CA0,CL0,NL0
  32	0.000000	-1	2	# LCS0,CA0,CL0,NL0
  33	0.900000	-1	2	# CA0,CS0,OA0,CS0
  34	3.625000	-1	2	# LOA0,CS0,CS0,LOA0
  35	3.625000	-1	2	# LOA0,CS0,CS0,CA1
  36	3.625000	-1	2	# LOA0,CS0,CA1,CA0
  37	3.625000	-1	2	# CS0,CS0,CA0,CS0
  38	3.625000	-1	2	# OA0,CS0,CA0,CS0

Atoms

   1	6	13	0.7	6.10536	-11.1345	-21.9907
   2	6	12	-0.35	6.89273	-11.913	-21.6449
   3	6	12	-0.35	5.31798	-10.356	22.5276
   4	7	13	0.7	7.27887	-21.8176	-15.9342
   5	7	12	-0.35	7.33482	-20.6603	-15.9897
   6	7	12	-0.35	7.22293	21.8892	-15.8788
   7	8	13	0.7	-22.3748	3.08914	-5.58384
   8	8	12	-0.35	22.2344	3.32069	-6.69152
   9	8	12	-0.35	-22.1198	2.85759	-4.47615

Velocities

   1	-2.88263e-05	0.00315844	0.00199014
   2	0.000223187	0.00163191	-0.00202013
   3	-0.000280839	0.00468496	0.00600041
   4	0.00132628	0.0048253	-0.00173027
   5	0.000120992	0.00488657	-0.00166765
   6	0.00253157	0.00476404	-0.00179289
   7	0.000758128	0.00269078	0.00338967
   8	-0.00187129	0.00342584	0.0041486
   9	0.00338754	0.00195572	0.00263073

Bonds

   1	15	1	2
   2	15	1	3
   3	15	4	5
   4	15	4	6
   5	15	7	8
   6	15	7	9

Angles

   1	26	2	1	3
   2	26	5	4	6
   3	26	8	7	9

