read using pysimm.system.read_mol

6 atoms
5 bonds
7 angles
3 dihedrals
0 impropers

4 atom types
3 bond types
3 angle types
1 dihedral types

-10.703883 11.362917 xlo xhi
-10.736150 11.122850 ylo yhi
-10.962483 10.734017 zlo zhi

Masses

   1	1.008	# h1
   2	16.0	# oh
   3	1.008	# ho
   4	12.01	# c3

Pair Coeffs

   1	0.0157	2.47135304412	# h1
   2	0.2104	3.06647338784	# oh
   3	0.0	0.0	# ho
   4	0.1094	3.39966950842	# c3

Bond Coeffs

   1	369.6	0.974	# ho,oh
   2	314.1	1.426	# c3,oh
   3	335.9	1.093	# c3,h1

Angle Coeffs

   1	47.09	108.16	# c3,oh,ho
   2	39.18	109.55	# h1,c3,h1
   3	50.97	109.88	# h1,c3,oh

Dihedral Coeffs

   1	0.166666666667	 1	3	# X,c3,oh,X

Atoms

   1	1	2	0	1.07721666667	0.14425	0.0488166666667
   2	1	4	0	-0.338583333333	0.14425	0.0488166666667
   3	1	1	0	-0.703883333333	-0.62475	0.734016666667
   4	1	1	0	-0.703783333333	-0.05045	-0.962483333333
   5	1	1	0	-0.693883333333	1.12285	0.380016666667
   6	1	3	0	1.36291666667	-0.73615	-0.249183333333

Velocities

   1	0.0	0.0	0
   2	0.0	0.0	0
   3	0.0	0.0	0
   4	0.0	0.0	0
   5	0.0	0.0	0
   6	0.0	0.0	0

Bonds

   1	2	1	2
   2	1	1	6
   3	3	2	3
   4	3	2	4
   5	3	2	5

Angles

   1	1	2	1	6
   2	3	1	2	3
   3	3	1	2	4
   4	3	1	2	5
   5	2	3	2	4
   6	2	3	2	5
   7	2	4	2	5

Dihedrals

   1	1	6	1	2	3
   2	1	6	1	2	4
   3	1	6	1	2	5

