LAMMPS data file CH4 trappe UA

1 atoms
0 bonds
0 angles
0 dihedrals
0 impropers

1 atom types
0 bond types
0 angle types

-10.000000 10.000000 xlo xhi
-10.000000 10.000000 ylo yhi
-10.000000 10.000000 zlo zhi

Masses

   1	16.04    # ME

Pair Coeffs

   1	0.2941    3.73    # ME

Atoms

   1    1    1    0    0    0    0

