Created on Sun Oct 30 10:44:18 2016 

         424 atoms
         512 bonds
         912 angles
         960 dihedrals
         576 impropers

           5 atom types
           5 bond types
           3 angle types
           3 dihedral types
           1 improper types
           0.000000  25.832000 xlo xhi
           0.000000  25.832000 ylo yhi
           0.000000  25.832000 zlo zhi

Masses

    1    65.380000000 # Zn
    2    15.999400000 # O_3
    3    15.999400000 # O_R
    4    12.010700000 # C_R
    5     1.007940000 # H_

Bond Coeffs

    1      350.000000        1.980000  # Zn O_R
    2      525.000000        1.350000  # O_R C_R
    3      525.000000        1.390000  # C_R C_R
    4      350.000000        1.020000  # C_R H_
    5      350.000000        1.390000  # C_R C_R

Angle Coeffs

    1       56.249847      109.471000 # O_R Zn O_R
    2       53.348970      104.510000 # Zn O_3 Zn
    3       66.666667      120.000000 # Zn O_R C_R

Dihedral Coeffs

    1        1   6.250000               2             540        # Zn O_R C_R C_R
    2        1   3.125000               2             540        # H_ C_R C_R C_R
    3        1   1.250000               2             540        # O_R C_R C_R C_R

Improper Coeffs

    1       13.333333        0.000000  # C_R C_R C_R H_

Pair Coeffs

    1        0.055000        4.044680 # Zn Zn
    2        0.095700        3.033154 # O_3 O_3
    3        0.095700        3.033154 # O_R O_R
    4        0.095100        3.472990 # C_R C_R
    5        0.015200        2.846421 # H_ H_

Atoms

       1      1        1     0.00000    7.57859    5.33741    5.33741
       2      1        1     0.00000    7.57859   18.25341   18.25341
       3      1        1     0.00000   18.25341   20.49459    5.33741
       4      1        1     0.00000   18.25341    7.57859   18.25341
       5      1        1     0.00000    5.33741    7.57859    5.33741
       6      1        1     0.00000   18.25341    5.33741   20.49459
       7      1        1     0.00000   18.25341   18.25341    7.57859
       8      1        1     0.00000    5.33741    5.33741    7.57859
       9      1        1     0.00000    7.57859   20.49459   20.49459
      10      1        1     0.00000    7.57859    7.57859    7.57859
      11      1        1     0.00000    5.33741   18.25341   20.49459
      12      1        1     0.00000   20.49459   18.25341    5.33741
      13      1        1     0.00000   20.49459    7.57859   20.49459
      14      1        1     0.00000   20.49459    5.33741   18.25341
      15      1        1     0.00000    5.33741   20.49459   18.25341
      16      1        1     0.00000   20.49459   20.49459    7.57859
      17      1        1     0.00000    5.33741    7.57859   20.49459
      18      1        1     0.00000   20.49459   18.25341   20.49459
      19      1        1     0.00000   20.49459    5.33741    7.57859
      20      1        1     0.00000    7.57859    5.33741   20.49459
      21      1        1     0.00000    5.33741   18.25341    5.33741
      22      1        1     0.00000   20.49459    7.57859    5.33741
      23      1        1     0.00000    7.57859    7.57859   18.25341
      24      1        1     0.00000    7.57859   18.25341    7.57859
      25      1        1     0.00000   18.25341    5.33741    5.33741
      26      1        1     0.00000   18.25341   18.25341   18.25341
      27      1        1     0.00000   18.25341   20.49459   20.49459
      28      1        1     0.00000   18.25341    7.57859    7.57859
      29      1        1     0.00000    5.33741   20.49459    7.57859
      30      1        1     0.00000    7.57859   20.49459    5.33741
      31      1        1     0.00000    5.33741    5.33741   18.25341
      32      1        1     0.00000   20.49459   20.49459   18.25341
      33      1        2     0.00000    6.45800    6.45800    6.45800
      34      1        2     0.00000   19.37400   19.37400    6.45800
      35      1        2     0.00000   19.37400    6.45800   19.37400
      36      1        2     0.00000    6.45800   19.37400   19.37400
      37      1        2     0.00000    6.45800    6.45800   19.37400
      38      1        2     0.00000   19.37400   19.37400   19.37400
      39      1        2     0.00000   19.37400    6.45800    6.45800
      40      1        2     0.00000    6.45800   19.37400    6.45800
      41      1        3     0.00000    7.28127    5.63473    3.46149
      42      1        4     0.00000    7.30787    5.60813    0.69488
      43      1        5     0.00000    7.87618    5.03982    1.15727
      44      1        3     0.00000    7.28127   18.55073   16.37749
      45      1        4     0.00000    7.30787   18.52413   13.61088
      46      1        5     0.00000    7.87618   17.95582   14.07327
      47      1        3     0.00000   18.55073   20.19727    3.46149
      48      1        4     0.00000   18.52413   20.22387    0.69488
      49      1        5     0.00000   17.95582   20.79218    1.15727
      50      1        3     0.00000   18.55073    7.28127   16.37749
      51      1        4     0.00000   18.52413    7.30787   13.61088
      52      1        5     0.00000   17.95582    7.87618   14.07327
      53      1        3     0.00000    5.63473    7.28127    3.46149
      54      1        4     0.00000    5.60813    7.30787    0.69488
      55      1        5     0.00000    5.03982    7.87618    1.15727
      56      1        3     0.00000   18.55073    5.63473   22.37051
      57      1        4     0.00000   18.52413    5.60813   25.13712
      58      1        5     0.00000   17.95582    5.03982   24.67473
      59      1        3     0.00000   18.55073   18.55073    9.45451
      60      1        4     0.00000   18.52413   18.52413   12.22112
      61      1        5     0.00000   17.95582   17.95582   11.75873
      62      1        3     0.00000    5.63473    5.63473    9.45451
      63      1        4     0.00000    5.60813    5.60813   12.22112
      64      1        5     0.00000    5.03982    5.03982   11.75873
      65      1        3     0.00000    7.28127   20.19727   22.37051
      66      1        4     0.00000    7.30787   20.22387   25.13712
      67      1        5     0.00000    7.87618   20.79218   24.67473
      68      1        3     0.00000    7.28127    7.28127    9.45451
      69      1        4     0.00000    7.30787    7.30787   12.22112
      70      1        5     0.00000    7.87618    7.87618   11.75873
      71      1        3     0.00000    3.46149    7.28127    5.63473
      72      1        4     0.00000    0.69488    7.30787    5.60813
      73      1        5     0.00000    1.15727    7.87618    5.03982
      74      1        3     0.00000   16.37749    7.28127   18.55073
      75      1        4     0.00000   13.61088    7.30787   18.52413
      76      1        5     0.00000   14.07327    7.87618   17.95582
      77      1        3     0.00000    3.46149   18.55073   20.19727
      78      1        4     0.00000    0.69488   18.52413   20.22387
      79      1        5     0.00000    1.15727   17.95582   20.79218
      80      1        3     0.00000    3.46149    5.63473    7.28127
      81      1        4     0.00000    0.69488    5.60813    7.30787
      82      1        5     0.00000    1.15727    5.03982    7.87618
      83      1        3     0.00000   16.37749   18.55073    7.28127
      84      1        4     0.00000   13.61088   18.52413    7.30787
      85      1        5     0.00000   14.07327   17.95582    7.87618
      86      1        3     0.00000   22.37051   18.55073    5.63473
      87      1        4     0.00000   25.13712   18.52413    5.60813
      88      1        5     0.00000   24.67473   17.95582    5.03982
      89      1        3     0.00000    9.45451   18.55073   18.55073
      90      1        4     0.00000   12.22112   18.52413   18.52413
      91      1        5     0.00000   11.75873   17.95582   17.95582
      92      1        3     0.00000    9.45451    5.63473    5.63473
      93      1        4     0.00000   12.22112    5.60813    5.60813
      94      1        5     0.00000   11.75873    5.03982    5.03982
      95      1        3     0.00000   22.37051    7.28127   20.19727
      96      1        4     0.00000   25.13712    7.30787   20.22387
      97      1        5     0.00000   24.67473    7.87618   20.79218
      98      1        3     0.00000    9.45451    7.28127    7.28127
      99      1        4     0.00000   12.22112    7.30787    7.30787
     100      1        5     0.00000   11.75873    7.87618    7.87618
     101      1        3     0.00000    5.63473    3.46149    7.28127
     102      1        4     0.00000    5.60813    0.69488    7.30787
     103      1        5     0.00000    5.03982    1.15727    7.87618
     104      1        3     0.00000    5.63473   16.37749   20.19727
     105      1        4     0.00000    5.60813   13.61088   20.22387
     106      1        5     0.00000    5.03982   14.07327   20.79218
     107      1        3     0.00000   20.19727    3.46149   18.55073
     108      1        4     0.00000   20.22387    0.69488   18.52413
     109      1        5     0.00000   20.79218    1.15727   17.95582
     110      1        3     0.00000   20.19727   16.37749    5.63473
     111      1        4     0.00000   20.22387   13.61088    5.60813
     112      1        5     0.00000   20.79218   14.07327    5.03982
     113      1        3     0.00000    7.28127    3.46149    5.63473
     114      1        4     0.00000    7.30787    0.69488    5.60813
     115      1        5     0.00000    7.87618    1.15727    5.03982
     116      1        3     0.00000    5.63473   22.37051   18.55073
     117      1        4     0.00000    5.60813   25.13712   18.52413
     118      1        5     0.00000    5.03982   24.67473   17.95582
     119      1        3     0.00000    5.63473    9.45451    5.63473
     120      1        4     0.00000    5.60813   12.22112    5.60813
     121      1        5     0.00000    5.03982   11.75873    5.03982
     122      1        3     0.00000   20.19727   22.37051    7.28127
     123      1        4     0.00000   20.22387   25.13712    7.30787
     124      1        5     0.00000   20.79218   24.67473    7.87618
     125      1        3     0.00000   20.19727    9.45451   20.19727
     126      1        4     0.00000   20.22387   12.22112   20.22387
     127      1        5     0.00000   20.79218   11.75873   20.79218
     128      1        3     0.00000    7.28127    9.45451    7.28127
     129      1        4     0.00000    7.30787   12.22112    7.30787
     130      1        5     0.00000    7.87618   11.75873    7.87618
     131      1        3     0.00000    5.63473    7.28127   22.37051
     132      1        4     0.00000    5.60813    7.30787   25.13712
     133      1        5     0.00000    5.03982    7.87618   24.67473
     134      1        3     0.00000    5.63473   20.19727    9.45451
     135      1        4     0.00000    5.60813   20.22387   12.22112
     136      1        5     0.00000    5.03982   20.79218   11.75873
     137      1        3     0.00000   20.19727   18.55073   22.37051
     138      1        4     0.00000   20.22387   18.52413   25.13712
     139      1        5     0.00000   20.79218   17.95582   24.67473
     140      1        3     0.00000   20.19727    5.63473    9.45451
     141      1        4     0.00000   20.22387    5.60813   12.22112
     142      1        5     0.00000   20.79218    5.03982   11.75873
     143      1        3     0.00000    7.28127    5.63473   22.37051
     144      1        4     0.00000    7.30787    5.60813   25.13712
     145      1        5     0.00000    7.87618    5.03982   24.67473
     146      1        3     0.00000    5.63473   18.55073    3.46149
     147      1        4     0.00000    5.60813   18.52413    0.69488
     148      1        5     0.00000    5.03982   17.95582    1.15727
     149      1        3     0.00000    5.63473    5.63473   16.37749
     150      1        4     0.00000    5.60813    5.60813   13.61088
     151      1        5     0.00000    5.03982    5.03982   14.07327
     152      1        3     0.00000   20.19727    7.28127    3.46149
     153      1        4     0.00000   20.22387    7.30787    0.69488
     154      1        5     0.00000   20.79218    7.87618    1.15727
     155      1        3     0.00000   20.19727   20.19727   16.37749
     156      1        4     0.00000   20.22387   20.22387   13.61088
     157      1        5     0.00000   20.79218   20.79218   14.07327
     158      1        3     0.00000    7.28127    7.28127   16.37749
     159      1        4     0.00000    7.30787    7.30787   13.61088
     160      1        5     0.00000    7.87618    7.87618   14.07327
     161      1        3     0.00000    7.28127    3.46149   20.19727
     162      1        4     0.00000    7.30787    0.69488   20.22387
     163      1        5     0.00000    7.87618    1.15727   20.79218
     164      1        3     0.00000    7.28127   16.37749    7.28127
     165      1        4     0.00000    7.30787   13.61088    7.30787
     166      1        5     0.00000    7.87618   14.07327    7.87618
     167      1        3     0.00000   18.55073    3.46149    5.63473
     168      1        4     0.00000   18.52413    0.69488    5.60813
     169      1        5     0.00000   17.95582    1.15727    5.03982
     170      1        3     0.00000   18.55073   16.37749   18.55073
     171      1        4     0.00000   18.52413   13.61088   18.52413
     172      1        5     0.00000   17.95582   14.07327   17.95582
     173      1        3     0.00000    5.63473   16.37749    5.63473
     174      1        4     0.00000    5.60813   13.61088    5.60813
     175      1        5     0.00000    5.03982   14.07327    5.03982
     176      1        3     0.00000   18.55073   22.37051   20.19727
     177      1        4     0.00000   18.52413   25.13712   20.22387
     178      1        5     0.00000   17.95582   24.67473   20.79218
     179      1        3     0.00000   18.55073    9.45451    7.28127
     180      1        4     0.00000   18.52413   12.22112    7.30787
     181      1        5     0.00000   17.95582   11.75873    7.87618
     182      1        3     0.00000    5.63473   22.37051    7.28127
     183      1        4     0.00000    5.60813   25.13712    7.30787
     184      1        5     0.00000    5.03982   24.67473    7.87618
     185      1        3     0.00000    7.28127   22.37051    5.63473
     186      1        4     0.00000    7.30787   25.13712    5.60813
     187      1        5     0.00000    7.87618   24.67473    5.03982
     188      1        3     0.00000    7.28127    9.45451   18.55073
     189      1        4     0.00000    7.30787   12.22112   18.52413
     190      1        5     0.00000    7.87618   11.75873   17.95582
     191      1        3     0.00000    3.46149    5.63473   18.55073
     192      1        4     0.00000    0.69488    5.60813   18.52413
     193      1        5     0.00000    1.15727    5.03982   17.95582
     194      1        3     0.00000   16.37749    5.63473    5.63473
     195      1        4     0.00000   13.61088    5.60813    5.60813
     196      1        5     0.00000   14.07327    5.03982    5.03982
     197      1        3     0.00000    3.46149   20.19727    7.28127
     198      1        4     0.00000    0.69488   20.22387    7.30787
     199      1        5     0.00000    1.15727   20.79218    7.87618
     200      1        3     0.00000   16.37749   20.19727   20.19727
     201      1        4     0.00000   13.61088   20.22387   20.22387
     202      1        5     0.00000   14.07327   20.79218   20.79218
     203      1        3     0.00000   16.37749    7.28127    7.28127
     204      1        4     0.00000   13.61088    7.30787    7.30787
     205      1        5     0.00000   14.07327    7.87618    7.87618
     206      1        3     0.00000   22.37051    5.63473    7.28127
     207      1        4     0.00000   25.13712    5.60813    7.30787
     208      1        5     0.00000   24.67473    5.03982    7.87618
     209      1        3     0.00000    9.45451    5.63473   20.19727
     210      1        4     0.00000   12.22112    5.60813   20.22387
     211      1        5     0.00000   11.75873    5.03982   20.79218
     212      1        3     0.00000   22.37051   20.19727   18.55073
     213      1        4     0.00000   25.13712   20.22387   18.52413
     214      1        5     0.00000   24.67473   20.79218   17.95582
     215      1        3     0.00000   22.37051    7.28127    5.63473
     216      1        4     0.00000   25.13712    7.30787    5.60813
     217      1        5     0.00000   24.67473    7.87618    5.03982
     218      1        3     0.00000    9.45451   20.19727    5.63473
     219      1        4     0.00000   12.22112   20.22387    5.60813
     220      1        5     0.00000   11.75873   20.79218    5.03982
     221      1        3     0.00000   18.55073   20.19727   22.37051
     222      1        4     0.00000   18.52413   20.22387   25.13712
     223      1        5     0.00000   17.95582   20.79218   24.67473
     224      1        3     0.00000   18.55073    7.28127    9.45451
     225      1        4     0.00000   18.52413    7.30787   12.22112
     226      1        5     0.00000   17.95582    7.87618   11.75873
     227      1        3     0.00000    7.28127   18.55073    9.45451
     228      1        4     0.00000    7.30787   18.52413   12.22112
     229      1        5     0.00000    7.87618   17.95582   11.75873
     230      1        3     0.00000    7.28127   20.19727    3.46149
     231      1        4     0.00000    7.30787   20.22387    0.69488
     232      1        5     0.00000    7.87618   20.79218    1.15727
     233      1        3     0.00000   18.55073    5.63473    3.46149
     234      1        4     0.00000   18.52413    5.60813    0.69488
     235      1        5     0.00000   17.95582    5.03982    1.15727
     236      1        3     0.00000   18.55073   18.55073   16.37749
     237      1        4     0.00000   18.52413   18.52413   13.61088
     238      1        5     0.00000   17.95582   17.95582   14.07327
     239      1        3     0.00000   22.37051   18.55073   20.19727
     240      1        4     0.00000   25.13712   18.52413   20.22387
     241      1        5     0.00000   24.67473   17.95582   20.79218
     242      1        3     0.00000    9.45451   18.55073    7.28127
     243      1        4     0.00000   12.22112   18.52413    7.30787
     244      1        5     0.00000   11.75873   17.95582    7.87618
     245      1        3     0.00000    9.45451    7.28127   18.55073
     246      1        4     0.00000   12.22112    7.30787   18.52413
     247      1        5     0.00000   11.75873    7.87618   17.95582
     248      1        3     0.00000    3.46149    7.28127   20.19727
     249      1        4     0.00000    0.69488    7.30787   20.22387
     250      1        5     0.00000    1.15727    7.87618   20.79218
     251      1        3     0.00000    3.46149   18.55073    5.63473
     252      1        4     0.00000    0.69488   18.52413    5.60813
     253      1        5     0.00000    1.15727   17.95582    5.03982
     254      1        3     0.00000   16.37749   18.55073   18.55073
     255      1        4     0.00000   13.61088   18.52413   18.52413
     256      1        5     0.00000   14.07327   17.95582   17.95582
     257      1        3     0.00000   20.19727   22.37051   18.55073
     258      1        4     0.00000   20.22387   25.13712   18.52413
     259      1        5     0.00000   20.79218   24.67473   17.95582
     260      1        3     0.00000   20.19727    9.45451    5.63473
     261      1        4     0.00000   20.22387   12.22112    5.60813
     262      1        5     0.00000   20.79218   11.75873    5.03982
     263      1        3     0.00000    5.63473    9.45451   20.19727
     264      1        4     0.00000    5.60813   12.22112   20.22387
     265      1        5     0.00000    5.03982   11.75873   20.79218
     266      1        3     0.00000   20.19727    3.46149    7.28127
     267      1        4     0.00000   20.22387    0.69488    7.30787
     268      1        5     0.00000   20.79218    1.15727    7.87618
     269      1        3     0.00000   20.19727   16.37749   20.19727
     270      1        4     0.00000   20.22387   13.61088   20.22387
     271      1        5     0.00000   20.79218   14.07327   20.79218
     272      1        3     0.00000    5.63473    3.46149   18.55073
     273      1        4     0.00000    5.60813    0.69488   18.52413
     274      1        5     0.00000    5.03982    1.15727   17.95582
     275      1        3     0.00000   20.19727   18.55073    3.46149
     276      1        4     0.00000   20.22387   18.52413    0.69488
     277      1        5     0.00000   20.79218   17.95582    1.15727
     278      1        3     0.00000   20.19727    5.63473   16.37749
     279      1        4     0.00000   20.22387    5.60813   13.61088
     280      1        5     0.00000   20.79218    5.03982   14.07327
     281      1        3     0.00000    5.63473   20.19727   16.37749
     282      1        4     0.00000    5.60813   20.22387   13.61088
     283      1        5     0.00000    5.03982   20.79218   14.07327
     284      1        3     0.00000   20.19727    7.28127   22.37051
     285      1        4     0.00000   20.22387    7.30787   25.13712
     286      1        5     0.00000   20.79218    7.87618   24.67473
     287      1        3     0.00000   20.19727   20.19727    9.45451
     288      1        4     0.00000   20.22387   20.22387   12.22112
     289      1        5     0.00000   20.79218   20.79218   11.75873
     290      1        3     0.00000    5.63473   18.55073   22.37051
     291      1        4     0.00000    5.60813   18.52413   25.13712
     292      1        5     0.00000    5.03982   17.95582   24.67473
     293      1        3     0.00000   18.55073   22.37051    5.63473
     294      1        4     0.00000   18.52413   25.13712    5.60813
     295      1        5     0.00000   17.95582   24.67473    5.03982
     296      1        3     0.00000   18.55073    9.45451   18.55073
     297      1        4     0.00000   18.52413   12.22112   18.52413
     298      1        5     0.00000   17.95582   11.75873   17.95582
     299      1        3     0.00000    7.28127   22.37051   20.19727
     300      1        4     0.00000    7.30787   25.13712   20.22387
     301      1        5     0.00000    7.87618   24.67473   20.79218
     302      1        3     0.00000    7.28127   16.37749   18.55073
     303      1        4     0.00000    7.30787   13.61088   18.52413
     304      1        5     0.00000    7.87618   14.07327   17.95582
     305      1        3     0.00000   18.55073    3.46149   20.19727
     306      1        4     0.00000   18.52413    0.69488   20.22387
     307      1        5     0.00000   17.95582    1.15727   20.79218
     308      1        3     0.00000   18.55073   16.37749    7.28127
     309      1        4     0.00000   18.52413   13.61088    7.30787
     310      1        5     0.00000   17.95582   14.07327    7.87618
     311      1        3     0.00000   22.37051   20.19727    7.28127
     312      1        4     0.00000   25.13712   20.22387    7.30787
     313      1        5     0.00000   24.67473   20.79218    7.87618
     314      1        3     0.00000    9.45451   20.19727   20.19727
     315      1        4     0.00000   12.22112   20.22387   20.22387
     316      1        5     0.00000   11.75873   20.79218   20.79218
     317      1        3     0.00000   22.37051    5.63473   18.55073
     318      1        4     0.00000   25.13712    5.60813   18.52413
     319      1        5     0.00000   24.67473    5.03982   17.95582
     320      1        3     0.00000    3.46149   20.19727   18.55073
     321      1        4     0.00000    0.69488   20.22387   18.52413
     322      1        5     0.00000    1.15727   20.79218   17.95582
     323      1        3     0.00000   16.37749   20.19727    5.63473
     324      1        4     0.00000   13.61088   20.22387    5.60813
     325      1        5     0.00000   14.07327   20.79218    5.03982
     326      1        3     0.00000   16.37749    5.63473   20.19727
     327      1        4     0.00000   13.61088    5.60813   20.22387
     328      1        5     0.00000   14.07327    5.03982   20.79218
     329      1        4     0.00000    6.45800    6.45800    2.87510
     330      1        4     0.00000    6.45800    6.45800    1.38976
     331      1        4     0.00000    6.45800   19.37400   15.79110
     332      1        4     0.00000    6.45800   19.37400   14.30576
     333      1        4     0.00000   19.37400   19.37400    2.87510
     334      1        4     0.00000   19.37400   19.37400    1.38976
     335      1        4     0.00000   19.37400    6.45800   15.79110
     336      1        4     0.00000   19.37400    6.45800   14.30576
     337      1        4     0.00000   19.37400    6.45800   22.95690
     338      1        4     0.00000   19.37400    6.45800   24.44224
     339      1        4     0.00000   19.37400   19.37400   10.04090
     340      1        4     0.00000   19.37400   19.37400   11.52624
     341      1        4     0.00000    6.45800    6.45800   10.04090
     342      1        4     0.00000    6.45800    6.45800   11.52624
     343      1        4     0.00000    6.45800   19.37400   22.95690
     344      1        4     0.00000    6.45800   19.37400   24.44224
     345      1        4     0.00000    2.87510    6.45800    6.45800
     346      1        4     0.00000    1.38976    6.45800    6.45800
     347      1        4     0.00000   15.79110    6.45800   19.37400
     348      1        4     0.00000   14.30576    6.45800   19.37400
     349      1        4     0.00000    2.87510   19.37400   19.37400
     350      1        4     0.00000    1.38976   19.37400   19.37400
     351      1        4     0.00000   15.79110   19.37400    6.45800
     352      1        4     0.00000   14.30576   19.37400    6.45800
     353      1        4     0.00000   22.95690   19.37400    6.45800
     354      1        4     0.00000   24.44224   19.37400    6.45800
     355      1        4     0.00000   10.04090   19.37400   19.37400
     356      1        4     0.00000   11.52624   19.37400   19.37400
     357      1        4     0.00000   10.04090    6.45800    6.45800
     358      1        4     0.00000   11.52624    6.45800    6.45800
     359      1        4     0.00000   22.95690    6.45800   19.37400
     360      1        4     0.00000   24.44224    6.45800   19.37400
     361      1        4     0.00000    6.45800    2.87510    6.45800
     362      1        4     0.00000    6.45800    1.38976    6.45800
     363      1        4     0.00000    6.45800   15.79110   19.37400
     364      1        4     0.00000    6.45800   14.30576   19.37400
     365      1        4     0.00000   19.37400    2.87510   19.37400
     366      1        4     0.00000   19.37400    1.38976   19.37400
     367      1        4     0.00000   19.37400   15.79110    6.45800
     368      1        4     0.00000   19.37400   14.30576    6.45800
     369      1        4     0.00000    6.45800   22.95690   19.37400
     370      1        4     0.00000    6.45800   24.44224   19.37400
     371      1        4     0.00000    6.45800   10.04090    6.45800
     372      1        4     0.00000    6.45800   11.52624    6.45800
     373      1        4     0.00000   19.37400   22.95690    6.45800
     374      1        4     0.00000   19.37400   24.44224    6.45800
     375      1        4     0.00000   19.37400   10.04090   19.37400
     376      1        4     0.00000   19.37400   11.52624   19.37400
     377      1        4     0.00000    6.45800    6.45800   22.95690
     378      1        4     0.00000    6.45800    6.45800   24.44224
     379      1        4     0.00000    6.45800   19.37400   10.04090
     380      1        4     0.00000    6.45800   19.37400   11.52624
     381      1        4     0.00000   19.37400   19.37400   22.95690
     382      1        4     0.00000   19.37400   19.37400   24.44224
     383      1        4     0.00000   19.37400    6.45800   10.04090
     384      1        4     0.00000   19.37400    6.45800   11.52624
     385      1        4     0.00000    6.45800   19.37400    2.87510
     386      1        4     0.00000    6.45800   19.37400    1.38976
     387      1        4     0.00000    6.45800    6.45800   15.79110
     388      1        4     0.00000    6.45800    6.45800   14.30576
     389      1        4     0.00000   19.37400    6.45800    2.87510
     390      1        4     0.00000   19.37400    6.45800    1.38976
     391      1        4     0.00000   19.37400   19.37400   15.79110
     392      1        4     0.00000   19.37400   19.37400   14.30576
     393      1        4     0.00000    6.45800    2.87510   19.37400
     394      1        4     0.00000    6.45800    1.38976   19.37400
     395      1        4     0.00000    6.45800   15.79110    6.45800
     396      1        4     0.00000    6.45800   14.30576    6.45800
     397      1        4     0.00000   19.37400    2.87510    6.45800
     398      1        4     0.00000   19.37400    1.38976    6.45800
     399      1        4     0.00000   19.37400   15.79110   19.37400
     400      1        4     0.00000   19.37400   14.30576   19.37400
     401      1        4     0.00000   19.37400   22.95690   19.37400
     402      1        4     0.00000   19.37400   24.44224   19.37400
     403      1        4     0.00000   19.37400   10.04090    6.45800
     404      1        4     0.00000   19.37400   11.52624    6.45800
     405      1        4     0.00000    6.45800   22.95690    6.45800
     406      1        4     0.00000    6.45800   24.44224    6.45800